
  ___ ___ ___ _ _ _  
 |   |   |_  | | | | 
 | | | | | . | | | | 
 |__ |  _|___|_____|  1.4.0
 |___|_|             

User:   ohni@x028.nifl.fysik.dtu.dk
Date:   Fri Jun 22 11:46:49 2018
Arch:   x86_64
Pid:    14176
Python: 3.6.4
gpaw:   /home/modules/software/GPAW/1.4.0-foss-2018a-Python-3.6.4/lib/python3.6/site-packages/gpaw
_gpaw:  /home/modules/software/GPAW/1.4.0-foss-2018a-Python-3.6.4/bin/
        gpaw-python
ase:    /home/modules/software/ASE/3.16.2-foss-2018a-Python-3.6.4/lib/python3.6/site-packages/ase-3.16.2-py3.6.egg/ase (version 3.16.2)
numpy:  /home/modules/software/Python/3.6.4-foss-2018a/lib/python3.6/site-packages/numpy-1.14.0-py3.6-linux-x86_64.egg/numpy (version 1.14.0)
scipy:  /home/modules/software/Python/3.6.4-foss-2018a/lib/python3.6/site-packages/scipy-1.0.0-py3.6-linux-x86_64.egg/scipy (version 1.0.0)
units:  Angstrom and eV
cores:  24

Input parameters:
  eigensolver: {name: dav,
                niter: 2}
  kpts: {size: (4, 1, 1)}
  mode: {ecut: 800.0,
         name: pw}
  nbands: 120%
  xc: PBE

System changes: positions, numbers, cell, pbc, initial_charges, initial_magmoms 

Initialize ...

Mo-setup:
  name: Molybdenum
  id: 296a29d4664fe6c6f68623909fe0870f
  Z: 42
  valence: 14
  core: 28
  charge: 0.0
  file: /home/modules/software/GPAW-setups/0.9.20000/Mo.PBE.gz
  cutoffs: 1.20(comp), 2.16(filt), 1.42(core), lmax=2
  valence states:
                energy  radius
    4s(2.00)   -64.307   1.238
    5s(1.00)    -4.084   1.238
    4p(6.00)   -38.491   1.296
    5p(0.00)    -1.044   1.296
    4d(5.00)    -3.754   1.296
    *d          23.458   1.296

  Using partial waves for Mo as LCAO basis

S-setup:
  name: Sulfur
  id: ca434db9faa07220b7a1d8cb6886b7a9
  Z: 16
  valence: 6
  core: 10
  charge: 0.0
  file: /home/modules/software/GPAW-setups/0.9.20000/S.PBE.gz
  cutoffs: 0.76(comp), 1.77(filt), 1.66(core), lmax=2
  valence states:
                energy  radius
    3s(2.00)   -17.254   0.974
    3p(4.00)    -7.008   0.979
    *s           9.957   0.974
    *p          20.203   0.979
    *d           0.000   0.900

  Using partial waves for S as LCAO basis

Reference energy: -7910958.745597

Spin-paired calculation

Occupation numbers:
  Fermi-Dirac: width=0.1000 eV

Convergence criteria:
  Maximum total energy change: 0.0005 eV / electron
  Maximum integral of absolute density change: 0.0001 electrons
  Maximum integral of absolute eigenstate change: 4e-08 eV^2
  Maximum number of iterations: 333

Symmetries present (total): 4

  ( 1  0  0)  ( 1  0  0)  (-1  0  0)  (-1  0  0)
  ( 0  1  0)  ( 0 -1  0)  ( 0  1  0)  ( 0 -1  0)
  ( 0  0  1)  ( 0  0 -1)  ( 0  0  1)  ( 0  0 -1)

4 k-points: 4 x 1 x 1 Monkhorst-Pack grid
2 k-points in the irreducible part of the Brillouin zone
       k-points in crystal coordinates                weights
   0:     0.12500000    0.00000000    0.00000000          2/4
   1:     0.37500000    0.00000000    0.00000000          2/4

Wave functions: Plane wave expansion
  Cutoff energy: 800.000 eV
  Number of coefficients (min, max): 521172, 521344
  Pulay-stress correction: 0.000000 eV/Ang^3 (de/decut=0.000000)
  Using FFTW library
  ScaLapack parameters: grid=1x1, blocksize=None 

Eigensolver
   Davidson(niter=2, smin=None, normalize=True) 

Densities:
  Coarse grid: 63*216*216 grid
  Fine grid: 126*432*432 grid
  Total Charge: 0.000000 

Density mixing:
  Method: separate
  Backend: pulay
  Linear mixing parameter: 0.05
  Mixing with 5 old densities
  Damping of long wave oscillations: 50 

Hamiltonian:
  XC and Coulomb potentials evaluated on a 126*432*432 grid
  Using the PBE Exchange-Correlation functional
 

Memory estimate:
  Process memory now: 1157.84 MiB
  Calculator: 2918.37 MiB
    Density: 1524.90 MiB
      Arrays: 583.06 MiB
      Localized functions: 717.59 MiB
      Mixer: 224.25 MiB
    Hamiltonian: 398.74 MiB
      Arrays: 381.23 MiB
      XC: 0.00 MiB
      Poisson: 0.00 MiB
      vbar: 17.51 MiB
    Wavefunctions: 994.73 MiB
      Arrays psit_nG: 620.50 MiB
      Eigensolver: 173.48 MiB
      Projections: 3.14 MiB
      Projectors: 79.52 MiB
      PW-descriptor: 118.09 MiB

Total number of cores used: 24
Parallelization over k-points: 2
Domain decomposition: 1 x 1 x 1
                      1 x 4 x 6 (xc only)
Parallelization over states: 12

Number of atoms: 180
Number of atomic orbitals: 1260
Number of bands in calculation: 936
Bands to converge: occupied states only
Number of valence electrons: 1560

... initialized

Initializing position-dependent things.

Density initialized from atomic densities
Creating initial wave functions:
  936 bands from LCAO basis set

                     .----------------------.  
                    /|                      |  
                   / |                      |  
                  /  |                      |  
                 /   |                      |  
                /    |                      |  
               /     |                      |  
              /      |                      |  
             /       |                      |  
            /        |                      |  
           /         |                      |  
          /          |                      |  
         /           |                      |  
        /            |                      |  
       /             |                      |  
      /              |                      |  
     /        S S    |S S     SS            |  
    /               S|     S       S        |  
   /      S  Mo   SoMo    SoMo   Mo         |  
  /            MoS   | Mo     Moo           |  
 *           S  S    S S     S S            |  
 |       Mo S    Mo S|   Mo S    S          |  
 |         S   S  S Mo S  S MoS    Mo       |  
 |                   |                      |  
 |          Mo     MoS     Mo               |  
 |     S      S Mo S |S Mo S    Mo S        |  
 |      S       SS   | S S       S          |  
 |                   |                      |  
 |     Mo     Mo    MoMo    Mo S   Mo       |  
 |       S S     S S |   SS                 |  
 |                   |                      |  
 |                 SS|    S S     S S       |  
 |     S  Mo  SMoMo  |SMoMo    Mo           |  
 |                   |                      |  
 |   S      S S     S|S      S              |  
 |    Mo  S  MoS  S  MoS  S    S            |  
 |               SMo |  S Mo    SMo         |  
 |                   |                      |  
 |     S SMo   SSMoS |S SMoS                |  
 |          SMo  S SMo   S SMo   S          |  
 |       S    S S    .S-S----S--------------.  
 |   S Mo    SMoo   /SMo      Mo           /   
 |       Mo Mo   MoMo    MoMo             /    
 |        S       S      S               /     
 |      S     SS /   S S     S          /      
 |              /                      /       
 |             /                      /        
 |            /                      /         
 |           /                      /          
 |          /                      /           
 |         /                      /            
 |        /                      /             
 |       /                      /              
 |      /                      /               
 |     /                      /                
 |    /                      /                 
 |   /                      /                  
 |  /                      /                   
 | /                      /                    
 |/                      /                     
 *----------------------*                      

Positions:
   0 Mo     0.000000   25.070500   16.304370    ( 0.0000,  0.0000,  0.0000)
   1 S      1.590000   26.608740   17.387403    ( 0.0000,  0.0000,  0.0000)
   2 S      1.590000   23.436215   17.053957    ( 0.0000,  0.0000,  0.0000)
   3 Mo    -1.590000   24.641455   19.013253    ( 0.0000,  0.0000,  0.0000)
   4 S      0.000000   25.769733   20.518621    ( 0.0000,  0.0000,  0.0000)
   5 S      0.000000   22.855523   19.221131    ( 0.0000,  0.0000,  0.0000)
   6 Mo     3.180000   25.070500   16.304370    ( 0.0000,  0.0000,  0.0000)
   7 S      4.770000   26.608740   17.387403    ( 0.0000,  0.0000,  0.0000)
   8 S      4.770000   23.436215   17.053957    ( 0.0000,  0.0000,  0.0000)
   9 Mo     1.590000   24.641455   19.013253    ( 0.0000,  0.0000,  0.0000)
  10 S      3.180000   25.769733   20.518621    ( 0.0000,  0.0000,  0.0000)
  11 S      3.180000   22.855523   19.221131    ( 0.0000,  0.0000,  0.0000)
  12 Mo     6.360000   25.070500   16.304370    ( 0.0000,  0.0000,  0.0000)
  13 S      7.950000   26.608740   17.387403    ( 0.0000,  0.0000,  0.0000)
  14 S      7.950000   23.436215   17.053957    ( 0.0000,  0.0000,  0.0000)
  15 Mo     4.770000   24.641455   19.013253    ( 0.0000,  0.0000,  0.0000)
  16 S      6.360000   25.769733   20.518621    ( 0.0000,  0.0000,  0.0000)
  17 S      6.360000   22.855523   19.221131    ( 0.0000,  0.0000,  0.0000)
  18 Mo     0.000000   23.396318   21.456972    ( 0.0000,  0.0000,  0.0000)
  19 S      1.590000   24.004190   23.237319    ( 0.0000,  0.0000,  0.0000)
  20 S      1.590000   21.633558   21.102792    ( 0.0000,  0.0000,  0.0000)
  21 Mo    -1.590000   21.456972   23.396318    ( 0.0000,  0.0000,  0.0000)
  22 S      0.000000   21.484935   25.277371    ( 0.0000,  0.0000,  0.0000)
  23 S      0.000000   19.889935   22.514750    ( 0.0000,  0.0000,  0.0000)
  24 Mo     3.180000   23.396318   21.456972    ( 0.0000,  0.0000,  0.0000)
  25 S      4.770000   24.004190   23.237319    ( 0.0000,  0.0000,  0.0000)
  26 S      4.770000   21.633558   21.102792    ( 0.0000,  0.0000,  0.0000)
  27 Mo     1.590000   21.456972   23.396318    ( 0.0000,  0.0000,  0.0000)
  28 S      3.180000   21.484935   25.277371    ( 0.0000,  0.0000,  0.0000)
  29 S      3.180000   19.889935   22.514750    ( 0.0000,  0.0000,  0.0000)
  30 Mo     6.360000   23.396318   21.456972    ( 0.0000,  0.0000,  0.0000)
  31 S      7.950000   24.004190   23.237319    ( 0.0000,  0.0000,  0.0000)
  32 S      7.950000   21.633558   21.102792    ( 0.0000,  0.0000,  0.0000)
  33 Mo     4.770000   21.456972   23.396318    ( 0.0000,  0.0000,  0.0000)
  34 S      6.360000   21.484935   25.277371    ( 0.0000,  0.0000,  0.0000)
  35 S      6.360000   19.889935   22.514750    ( 0.0000,  0.0000,  0.0000)
  36 Mo     0.000000   19.013253   24.641455    ( 0.0000,  0.0000,  0.0000)
  37 S      1.590000   18.458570   26.439084    ( 0.0000,  0.0000,  0.0000)
  38 S      1.590000   17.795332   23.318793    ( 0.0000,  0.0000,  0.0000)
  39 Mo    -1.590000   16.304370   25.070500    ( 0.0000,  0.0000,  0.0000)
  40 S      0.000000   15.221337   26.608740    ( 0.0000,  0.0000,  0.0000)
  41 S      0.000000   15.554783   23.436215    ( 0.0000,  0.0000,  0.0000)
  42 Mo     3.180000   19.013253   24.641455    ( 0.0000,  0.0000,  0.0000)
  43 S      4.770000   18.458570   26.439084    ( 0.0000,  0.0000,  0.0000)
  44 S      4.770000   17.795332   23.318793    ( 0.0000,  0.0000,  0.0000)
  45 Mo     1.590000   16.304370   25.070500    ( 0.0000,  0.0000,  0.0000)
  46 S      3.180000   15.221337   26.608740    ( 0.0000,  0.0000,  0.0000)
  47 S      3.180000   15.554783   23.436215    ( 0.0000,  0.0000,  0.0000)
  48 Mo     6.360000   19.013253   24.641455    ( 0.0000,  0.0000,  0.0000)
  49 S      7.950000   18.458570   26.439084    ( 0.0000,  0.0000,  0.0000)
  50 S      7.950000   17.795332   23.318793    ( 0.0000,  0.0000,  0.0000)
  51 Mo     4.770000   16.304370   25.070500    ( 0.0000,  0.0000,  0.0000)
  52 S      6.360000   15.221337   26.608740    ( 0.0000,  0.0000,  0.0000)
  53 S      6.360000   15.554783   23.436215    ( 0.0000,  0.0000,  0.0000)
  54 Mo     0.000000   13.595487   24.641455    ( 0.0000,  0.0000,  0.0000)
  55 S      1.590000   12.090119   25.769733    ( 0.0000,  0.0000,  0.0000)
  56 S      1.590000   13.387609   22.855523    ( 0.0000,  0.0000,  0.0000)
  57 Mo    -1.590000   11.151768   23.396318    ( 0.0000,  0.0000,  0.0000)
  58 S      0.000000    9.371421   24.004190    ( 0.0000,  0.0000,  0.0000)
  59 S      0.000000   11.505948   21.633558    ( 0.0000,  0.0000,  0.0000)
  60 Mo     3.180000   13.595487   24.641455    ( 0.0000,  0.0000,  0.0000)
  61 S      4.770000   12.090119   25.769733    ( 0.0000,  0.0000,  0.0000)
  62 S      4.770000   13.387609   22.855523    ( 0.0000,  0.0000,  0.0000)
  63 Mo     1.590000   11.151768   23.396318    ( 0.0000,  0.0000,  0.0000)
  64 S      3.180000    9.371421   24.004190    ( 0.0000,  0.0000,  0.0000)
  65 S      3.180000   11.505948   21.633558    ( 0.0000,  0.0000,  0.0000)
  66 Mo     6.360000   13.595487   24.641455    ( 0.0000,  0.0000,  0.0000)
  67 S      7.950000   12.090119   25.769733    ( 0.0000,  0.0000,  0.0000)
  68 S      7.950000   13.387609   22.855523    ( 0.0000,  0.0000,  0.0000)
  69 Mo     4.770000   11.151768   23.396318    ( 0.0000,  0.0000,  0.0000)
  70 S      6.360000    9.371421   24.004190    ( 0.0000,  0.0000,  0.0000)
  71 S      6.360000   11.505948   21.633558    ( 0.0000,  0.0000,  0.0000)
  72 Mo     0.000000    9.212422   21.456972    ( 0.0000,  0.0000,  0.0000)
  73 S      1.590000    7.331369   21.484935    ( 0.0000,  0.0000,  0.0000)
  74 S      1.590000   10.093990   19.889935    ( 0.0000,  0.0000,  0.0000)
  75 Mo    -1.590000    7.967286   19.013253    ( 0.0000,  0.0000,  0.0000)
  76 S      0.000000    6.169656   18.458570    ( 0.0000,  0.0000,  0.0000)
  77 S      0.000000    9.289947   17.795332    ( 0.0000,  0.0000,  0.0000)
  78 Mo     3.180000    9.212422   21.456972    ( 0.0000,  0.0000,  0.0000)
  79 S      4.770000    7.331369   21.484935    ( 0.0000,  0.0000,  0.0000)
  80 S      4.770000   10.093990   19.889935    ( 0.0000,  0.0000,  0.0000)
  81 Mo     1.590000    7.967286   19.013253    ( 0.0000,  0.0000,  0.0000)
  82 S      3.180000    6.169656   18.458570    ( 0.0000,  0.0000,  0.0000)
  83 S      3.180000    9.289947   17.795332    ( 0.0000,  0.0000,  0.0000)
  84 Mo     6.360000    9.212422   21.456972    ( 0.0000,  0.0000,  0.0000)
  85 S      7.950000    7.331369   21.484935    ( 0.0000,  0.0000,  0.0000)
  86 S      7.950000   10.093990   19.889935    ( 0.0000,  0.0000,  0.0000)
  87 Mo     4.770000    7.967286   19.013253    ( 0.0000,  0.0000,  0.0000)
  88 S      6.360000    6.169656   18.458570    ( 0.0000,  0.0000,  0.0000)
  89 S      6.360000    9.289947   17.795332    ( 0.0000,  0.0000,  0.0000)
  90 Mo     0.000000    7.538241   16.304370    ( 0.0000,  0.0000,  0.0000)
  91 S      1.590000    6.000000   15.221337    ( 0.0000,  0.0000,  0.0000)
  92 S      1.590000    9.172525   15.554783    ( 0.0000,  0.0000,  0.0000)
  93 Mo    -1.590000    7.967286   13.595487    ( 0.0000,  0.0000,  0.0000)
  94 S      0.000000    6.839007   12.090119    ( 0.0000,  0.0000,  0.0000)
  95 S      0.000000    9.753217   13.387609    ( 0.0000,  0.0000,  0.0000)
  96 Mo     3.180000    7.538241   16.304370    ( 0.0000,  0.0000,  0.0000)
  97 S      4.770000    6.000000   15.221337    ( 0.0000,  0.0000,  0.0000)
  98 S      4.770000    9.172525   15.554783    ( 0.0000,  0.0000,  0.0000)
  99 Mo     1.590000    7.967286   13.595487    ( 0.0000,  0.0000,  0.0000)
 100 S      3.180000    6.839007   12.090119    ( 0.0000,  0.0000,  0.0000)
 101 S      3.180000    9.753217   13.387609    ( 0.0000,  0.0000,  0.0000)
 102 Mo     6.360000    7.538241   16.304370    ( 0.0000,  0.0000,  0.0000)
 103 S      7.950000    6.000000   15.221337    ( 0.0000,  0.0000,  0.0000)
 104 S      7.950000    9.172525   15.554783    ( 0.0000,  0.0000,  0.0000)
 105 Mo     4.770000    7.967286   13.595487    ( 0.0000,  0.0000,  0.0000)
 106 S      6.360000    6.839007   12.090119    ( 0.0000,  0.0000,  0.0000)
 107 S      6.360000    9.753217   13.387609    ( 0.0000,  0.0000,  0.0000)
 108 Mo     0.000000    9.212422   11.151768    ( 0.0000,  0.0000,  0.0000)
 109 S      1.590000    8.604550    9.371421    ( 0.0000,  0.0000,  0.0000)
 110 S      1.590000   10.975182   11.505948    ( 0.0000,  0.0000,  0.0000)
 111 Mo    -1.590000   11.151768    9.212422    ( 0.0000,  0.0000,  0.0000)
 112 S      0.000000   11.123805    7.331369    ( 0.0000,  0.0000,  0.0000)
 113 S      0.000000   12.718805   10.093990    ( 0.0000,  0.0000,  0.0000)
 114 Mo     3.180000    9.212422   11.151768    ( 0.0000,  0.0000,  0.0000)
 115 S      4.770000    8.604550    9.371421    ( 0.0000,  0.0000,  0.0000)
 116 S      4.770000   10.975182   11.505948    ( 0.0000,  0.0000,  0.0000)
 117 Mo     1.590000   11.151768    9.212422    ( 0.0000,  0.0000,  0.0000)
 118 S      3.180000   11.123805    7.331369    ( 0.0000,  0.0000,  0.0000)
 119 S      3.180000   12.718805   10.093990    ( 0.0000,  0.0000,  0.0000)
 120 Mo     6.360000    9.212422   11.151768    ( 0.0000,  0.0000,  0.0000)
 121 S      7.950000    8.604550    9.371421    ( 0.0000,  0.0000,  0.0000)
 122 S      7.950000   10.975182   11.505948    ( 0.0000,  0.0000,  0.0000)
 123 Mo     4.770000   11.151768    9.212422    ( 0.0000,  0.0000,  0.0000)
 124 S      6.360000   11.123805    7.331369    ( 0.0000,  0.0000,  0.0000)
 125 S      6.360000   12.718805   10.093990    ( 0.0000,  0.0000,  0.0000)
 126 Mo     0.000000   13.595487    7.967286    ( 0.0000,  0.0000,  0.0000)
 127 S      1.590000   14.150170    6.169656    ( 0.0000,  0.0000,  0.0000)
 128 S      1.590000   14.813408    9.289947    ( 0.0000,  0.0000,  0.0000)
 129 Mo    -1.590000   16.304370    7.538241    ( 0.0000,  0.0000,  0.0000)
 130 S      0.000000   17.387403    6.000000    ( 0.0000,  0.0000,  0.0000)
 131 S      0.000000   17.053957    9.172525    ( 0.0000,  0.0000,  0.0000)
 132 Mo     3.180000   13.595487    7.967286    ( 0.0000,  0.0000,  0.0000)
 133 S      4.770000   14.150170    6.169656    ( 0.0000,  0.0000,  0.0000)
 134 S      4.770000   14.813408    9.289947    ( 0.0000,  0.0000,  0.0000)
 135 Mo     1.590000   16.304370    7.538241    ( 0.0000,  0.0000,  0.0000)
 136 S      3.180000   17.387403    6.000000    ( 0.0000,  0.0000,  0.0000)
 137 S      3.180000   17.053957    9.172525    ( 0.0000,  0.0000,  0.0000)
 138 Mo     6.360000   13.595487    7.967286    ( 0.0000,  0.0000,  0.0000)
 139 S      7.950000   14.150170    6.169656    ( 0.0000,  0.0000,  0.0000)
 140 S      7.950000   14.813408    9.289947    ( 0.0000,  0.0000,  0.0000)
 141 Mo     4.770000   16.304370    7.538241    ( 0.0000,  0.0000,  0.0000)
 142 S      6.360000   17.387403    6.000000    ( 0.0000,  0.0000,  0.0000)
 143 S      6.360000   17.053957    9.172525    ( 0.0000,  0.0000,  0.0000)
 144 Mo     0.000000   19.013253    7.967286    ( 0.0000,  0.0000,  0.0000)
 145 S      1.590000   20.518621    6.839007    ( 0.0000,  0.0000,  0.0000)
 146 S      1.590000   19.221131    9.753217    ( 0.0000,  0.0000,  0.0000)
 147 Mo    -1.590000   21.456972    9.212422    ( 0.0000,  0.0000,  0.0000)
 148 S      0.000000   23.237319    8.604550    ( 0.0000,  0.0000,  0.0000)
 149 S      0.000000   21.102792   10.975182    ( 0.0000,  0.0000,  0.0000)
 150 Mo     3.180000   19.013253    7.967286    ( 0.0000,  0.0000,  0.0000)
 151 S      4.770000   20.518621    6.839007    ( 0.0000,  0.0000,  0.0000)
 152 S      4.770000   19.221131    9.753217    ( 0.0000,  0.0000,  0.0000)
 153 Mo     1.590000   21.456972    9.212422    ( 0.0000,  0.0000,  0.0000)
 154 S      3.180000   23.237319    8.604550    ( 0.0000,  0.0000,  0.0000)
 155 S      3.180000   21.102792   10.975182    ( 0.0000,  0.0000,  0.0000)
 156 Mo     6.360000   19.013253    7.967286    ( 0.0000,  0.0000,  0.0000)
 157 S      7.950000   20.518621    6.839007    ( 0.0000,  0.0000,  0.0000)
 158 S      7.950000   19.221131    9.753217    ( 0.0000,  0.0000,  0.0000)
 159 Mo     4.770000   21.456972    9.212422    ( 0.0000,  0.0000,  0.0000)
 160 S      6.360000   23.237319    8.604550    ( 0.0000,  0.0000,  0.0000)
 161 S      6.360000   21.102792   10.975182    ( 0.0000,  0.0000,  0.0000)
 162 Mo     0.000000   23.396318   11.151768    ( 0.0000,  0.0000,  0.0000)
 163 S      1.590000   25.277371   11.123805    ( 0.0000,  0.0000,  0.0000)
 164 S      1.590000   22.514750   12.718805    ( 0.0000,  0.0000,  0.0000)
 165 Mo    -1.590000   24.641455   13.595487    ( 0.0000,  0.0000,  0.0000)
 166 S      0.000000   26.439084   14.150170    ( 0.0000,  0.0000,  0.0000)
 167 S      0.000000   23.318793   14.813408    ( 0.0000,  0.0000,  0.0000)
 168 Mo     3.180000   23.396318   11.151768    ( 0.0000,  0.0000,  0.0000)
 169 S      4.770000   25.277371   11.123805    ( 0.0000,  0.0000,  0.0000)
 170 S      4.770000   22.514750   12.718805    ( 0.0000,  0.0000,  0.0000)
 171 Mo     1.590000   24.641455   13.595487    ( 0.0000,  0.0000,  0.0000)
 172 S      3.180000   26.439084   14.150170    ( 0.0000,  0.0000,  0.0000)
 173 S      3.180000   23.318793   14.813408    ( 0.0000,  0.0000,  0.0000)
 174 Mo     6.360000   23.396318   11.151768    ( 0.0000,  0.0000,  0.0000)
 175 S      7.950000   25.277371   11.123805    ( 0.0000,  0.0000,  0.0000)
 176 S      7.950000   22.514750   12.718805    ( 0.0000,  0.0000,  0.0000)
 177 Mo     4.770000   24.641455   13.595487    ( 0.0000,  0.0000,  0.0000)
 178 S      6.360000   26.439084   14.150170    ( 0.0000,  0.0000,  0.0000)
 179 S      6.360000   23.318793   14.813408    ( 0.0000,  0.0000,  0.0000)

Unit cell:
           periodic     x           y           z      points  spacing
  1. axis:    yes    9.540000    0.000000    0.000000    63     0.1514
  2. axis:    yes    0.000000   32.608740    0.000000   216     0.1510
  3. axis:    yes    0.000000    0.000000   32.608740   216     0.1510

  Lengths:   9.540000  32.608740  32.608740
  Angles:   90.000000  90.000000  90.000000

Effective grid spacing dv^(1/3) = 0.1511

                     log10-error:    total        iterations:
           time      wfs    density  energy       fermi  poisson
iter:   1  12:04:21  +0.70   +inf  -1378.891285    3             
iter:   2  12:14:08  -0.35   +inf  -1389.647796    3             
iter:   3  12:23:56  -1.04   +inf  -1391.396297    2             
iter:   4  12:34:27  -1.29  -1.10  -1355.364531    6             
iter:   5  12:44:57  -0.31  -1.16  -1302.831691    10            
iter:   6  12:55:26  -1.36  -1.33  -1305.448534    35            
iter:   7  13:05:57  -1.27  -1.40  -1292.840722    3             
iter:   8  13:16:25  -0.41  -1.66  -1337.004395    29            
iter:   9  13:26:57  -0.53  -1.35  -1300.646409    25            
iter:  10  13:37:29  -1.10  -1.64  -1298.253558    35            
iter:  11  13:47:59  -2.21  -1.77  -1291.318903    6             
iter:  12  13:58:32  -2.11  -2.23  -1290.717044    4             
iter:  13  14:09:03  -3.53  -2.68  -1290.802255    3             
iter:  14  14:19:34  -3.94  -2.73  -1290.799410    2             
iter:  15  14:30:03  -3.28  -2.80  -1290.752977    3             
iter:  16  14:40:36  -4.03  -3.15  -1290.755975    2             
iter:  17  14:51:08  -4.98  -3.24  -1290.751194    2             
iter:  18  15:01:39  -4.55  -3.39  -1290.750555    2             
iter:  19  15:12:11  -5.14  -3.56  -1290.750379    2             
iter:  20  15:22:41  -5.01  -3.61  -1290.750206    2             
iter:  21  15:33:12  -6.22  -3.68  -1290.749752    2             
iter:  22  15:43:44  -5.73  -3.77  -1290.749773    2             
iter:  23  15:54:16  -6.46  -3.81  -1290.749708    2             
iter:  24  16:04:45  -6.47  -3.91  -1290.749711    1             
iter:  25  16:15:17  -6.79  -4.03  -1290.749742    2             
iter:  26  16:25:51  -6.92  -4.13  -1290.749748    2             
iter:  27  16:36:25  -6.83  -4.19  -1290.749758    2             
iter:  28  16:46:54  -6.79  -4.33  -1290.749730    2             
iter:  29  16:57:25  -7.45  -4.42  -1290.749729    1             

Converged after 29 iterations.

Dipole moment: (-0.000000, -0.000000, -0.000000) |e|*Ang

Energy contributions relative to reference atoms: (reference = -7910958.745597)

Kinetic:        -80.713173
Potential:     -278.839581
External:        +0.000000
XC:            -928.988505
Entropy (-ST):   -0.007470
Local:           -2.204735
--------------------------
Free energy:   -1290.753464
Extrapolated:  -1290.749729

Fermi level: -0.84441

Showing all kpts
 Kpt  Band  Eigenvalues  Occupancy
  0   778     -1.68109    0.99977
  0   779     -1.63804    0.99964
  0   780     -0.03973    0.00032
  0   781     -0.01564    0.00025

  1   778     -1.65428    0.99970
  1   779     -1.59932    0.99947
  1   780      0.09509    0.00008
  1   781      0.09510    0.00008



Forces in eV/Ang:
  0 Mo    0.00000    1.02676    0.41402
  1 S    -0.00000   -0.98643    0.08178
  2 S    -0.00000    0.37643   -0.73784
  3 Mo   -0.00000    0.84823    0.71197
  4 S     0.00000   -0.96360   -0.22767
  5 S     0.00000    0.58563   -0.58574
  6 Mo   -0.00000    1.02676    0.41402
  7 S     0.00000   -0.98643    0.08178
  8 S    -0.00000    0.37643   -0.73784
  9 Mo    0.00000    0.84823    0.71197
 10 S    -0.00000   -0.96360   -0.22767
 11 S    -0.00000    0.58563   -0.58574
 12 Mo    0.00000    1.02676    0.41402
 13 S     0.00000   -0.98643    0.08178
 14 S     0.00000    0.37643   -0.73784
 15 Mo    0.00000    0.84823    0.71197
 16 S     0.00000   -0.96360   -0.22767
 17 S     0.00000    0.58563   -0.58574
 18 Mo    0.00000    0.58633    0.93993
 19 S    -0.00000   -0.84609   -0.51476
 20 S    -0.00000    0.73819   -0.37710
 21 Mo   -0.00000    0.26766    1.07488
 22 S     0.00000   -0.64575   -0.75068
 23 S     0.00000    0.81904   -0.13062
 24 Mo    0.00000    0.58633    0.93993
 25 S     0.00000   -0.84609   -0.51476
 26 S     0.00000    0.73819   -0.37710
 27 Mo    0.00000    0.26766    1.07488
 28 S    -0.00000   -0.64575   -0.75068
 29 S     0.00000    0.81904   -0.13062
 30 Mo   -0.00000    0.58633    0.93993
 31 S     0.00000   -0.84609   -0.51476
 32 S     0.00000    0.73819   -0.37710
 33 Mo    0.00000    0.26766    1.07488
 34 S     0.00000   -0.64575   -0.75068
 35 S    -0.00000    0.81904   -0.13062
 36 Mo    0.00000   -0.07658    1.10461
 37 S    -0.00000   -0.38258   -0.91293
 38 S    -0.00000    0.81881    0.12961
 39 Mo   -0.00000   -0.41402    1.02676
 40 S     0.00000   -0.08178   -0.98643
 41 S     0.00000    0.73784    0.37642
 42 Mo   -0.00000   -0.07658    1.10461
 43 S     0.00000   -0.38258   -0.91293
 44 S     0.00000    0.81881    0.12961
 45 Mo    0.00000   -0.41402    1.02676
 46 S     0.00000   -0.08178   -0.98643
 47 S     0.00000    0.73784    0.37642
 48 Mo    0.00000   -0.07658    1.10461
 49 S     0.00000   -0.38258   -0.91293
 50 S     0.00000    0.81881    0.12961
 51 Mo    0.00000   -0.41402    1.02676
 52 S    -0.00000   -0.08178   -0.98643
 53 S    -0.00000    0.73784    0.37642
 54 Mo    0.00000   -0.71198    0.84823
 55 S    -0.00000    0.22767   -0.96360
 56 S    -0.00000    0.58574    0.58564
 57 Mo   -0.00000   -0.93993    0.58633
 58 S     0.00000    0.51476   -0.84609
 59 S     0.00000    0.37711    0.73819
 60 Mo   -0.00000   -0.71198    0.84823
 61 S     0.00000    0.22767   -0.96360
 62 S     0.00000    0.58574    0.58564
 63 Mo    0.00000   -0.93993    0.58633
 64 S    -0.00000    0.51476   -0.84609
 65 S    -0.00000    0.37711    0.73819
 66 Mo    0.00000   -0.71198    0.84823
 67 S     0.00000    0.22767   -0.96360
 68 S     0.00000    0.58574    0.58564
 69 Mo    0.00000   -0.93993    0.58633
 70 S     0.00000    0.51476   -0.84609
 71 S     0.00000    0.37711    0.73819
 72 Mo    0.00000   -1.07488    0.26765
 73 S    -0.00000    0.75068   -0.64575
 74 S     0.00000    0.13062    0.81904
 75 Mo   -0.00000   -1.10461   -0.07657
 76 S     0.00000    0.91293   -0.38258
 77 S     0.00000   -0.12960    0.81881
 78 Mo   -0.00000   -1.07488    0.26765
 79 S     0.00000    0.75068   -0.64575
 80 S     0.00000    0.13062    0.81904
 81 Mo    0.00000   -1.10461   -0.07657
 82 S    -0.00000    0.91293   -0.38258
 83 S    -0.00000   -0.12960    0.81881
 84 Mo    0.00000   -1.07488    0.26765
 85 S     0.00000    0.75068   -0.64575
 86 S    -0.00000    0.13062    0.81904
 87 Mo   -0.00000   -1.10461   -0.07657
 88 S     0.00000    0.91293   -0.38258
 89 S     0.00000   -0.12960    0.81881
 90 Mo    0.00000   -1.02676   -0.41402
 91 S    -0.00000    0.98643   -0.08178
 92 S    -0.00000   -0.37643    0.73784
 93 Mo   -0.00000   -0.84823   -0.71197
 94 S     0.00000    0.96360    0.22767
 95 S     0.00000   -0.58563    0.58574
 96 Mo   -0.00000   -1.02676   -0.41402
 97 S     0.00000    0.98643   -0.08178
 98 S     0.00000   -0.37643    0.73784
 99 Mo    0.00000   -0.84823   -0.71197
100 S    -0.00000    0.96360    0.22767
101 S    -0.00000   -0.58563    0.58574
102 Mo    0.00000   -1.02676   -0.41402
103 S     0.00000    0.98643   -0.08178
104 S     0.00000   -0.37643    0.73784
105 Mo    0.00000   -0.84823   -0.71197
106 S     0.00000    0.96360    0.22767
107 S     0.00000   -0.58563    0.58574
108 Mo    0.00000   -0.58633   -0.93993
109 S    -0.00000    0.84609    0.51476
110 S    -0.00000   -0.73819    0.37710
111 Mo   -0.00000   -0.26766   -1.07488
112 S     0.00000    0.64575    0.75068
113 S     0.00000   -0.81904    0.13062
114 Mo    0.00000   -0.58633   -0.93993
115 S     0.00000    0.84609    0.51476
116 S     0.00000   -0.73819    0.37710
117 Mo    0.00000   -0.26766   -1.07488
118 S    -0.00000    0.64575    0.75068
119 S     0.00000   -0.81904    0.13062
120 Mo   -0.00000   -0.58633   -0.93993
121 S     0.00000    0.84609    0.51476
122 S     0.00000   -0.73819    0.37710
123 Mo    0.00000   -0.26766   -1.07488
124 S     0.00000    0.64575    0.75068
125 S    -0.00000   -0.81904    0.13062
126 Mo    0.00000    0.07658   -1.10461
127 S    -0.00000    0.38258    0.91293
128 S    -0.00000   -0.81881   -0.12961
129 Mo   -0.00000    0.41402   -1.02676
130 S     0.00000    0.08178    0.98643
131 S     0.00000   -0.73784   -0.37642
132 Mo   -0.00000    0.07658   -1.10461
133 S     0.00000    0.38258    0.91293
134 S     0.00000   -0.81881   -0.12961
135 Mo    0.00000    0.41402   -1.02676
136 S     0.00000    0.08178    0.98643
137 S     0.00000   -0.73784   -0.37642
138 Mo    0.00000    0.07658   -1.10461
139 S     0.00000    0.38258    0.91293
140 S     0.00000   -0.81881   -0.12961
141 Mo    0.00000    0.41402   -1.02676
142 S    -0.00000    0.08178    0.98643
143 S    -0.00000   -0.73784   -0.37642
144 Mo    0.00000    0.71198   -0.84823
145 S    -0.00000   -0.22767    0.96360
146 S    -0.00000   -0.58574   -0.58564
147 Mo   -0.00000    0.93993   -0.58633
148 S     0.00000   -0.51476    0.84609
149 S     0.00000   -0.37711   -0.73819
150 Mo   -0.00000    0.71198   -0.84823
151 S     0.00000   -0.22767    0.96360
152 S     0.00000   -0.58574   -0.58564
153 Mo    0.00000    0.93993   -0.58633
154 S    -0.00000   -0.51476    0.84609
155 S    -0.00000   -0.37711   -0.73819
156 Mo    0.00000    0.71198   -0.84823
157 S     0.00000   -0.22767    0.96360
158 S     0.00000   -0.58574   -0.58564
159 Mo    0.00000    0.93993   -0.58633
160 S     0.00000   -0.51476    0.84609
161 S     0.00000   -0.37711   -0.73819
162 Mo    0.00000    1.07488   -0.26765
163 S    -0.00000   -0.75068    0.64575
164 S     0.00000   -0.13062   -0.81904
165 Mo   -0.00000    1.10461    0.07657
166 S     0.00000   -0.91293    0.38258
167 S     0.00000    0.12960   -0.81881
168 Mo   -0.00000    1.07488   -0.26765
169 S     0.00000   -0.75068    0.64575
170 S     0.00000   -0.13062   -0.81904
171 Mo    0.00000    1.10461    0.07657
172 S    -0.00000   -0.91293    0.38258
173 S    -0.00000    0.12960   -0.81881
174 Mo    0.00000    1.07488   -0.26765
175 S     0.00000   -0.75068    0.64575
176 S    -0.00000   -0.13062   -0.81904
177 Mo   -0.00000    1.10461    0.07657
178 S     0.00000   -0.91293    0.38258
179 S     0.00000    0.12960   -0.81881

Timing:                              incl.     excl.
-----------------------------------------------------------
Forces:                            233.105   233.105   1.2% |
Hamiltonian:                        13.859     0.160   0.0% |
 Atomic:                             0.465     0.062   0.0% |
  XC Correction:                     0.402     0.402   0.0% |
 Calculate atomic Hamiltonians:      9.121     9.121   0.0% |
 Communicate:                        0.001     0.001   0.0% |
 Initialize Hamiltonian:             0.001     0.001   0.0% |
 Poisson:                            0.236     0.236   0.0% |
 XC 3D grid:                         3.877     3.877   0.0% |
LCAO initialization:               300.773     0.227   0.0% |
 LCAO eigensolver:                  45.387     0.014   0.0% |
  Calculate projections:             0.115     0.115   0.0% |
  DenseAtomicCorrection:             2.105     2.105   0.0% |
  Distribute overlap matrix:         0.059     0.059   0.0% |
  Orbital Layouts:                  14.888    14.888   0.1% |
  Potential matrix:                 28.173    28.173   0.1% |
  Sum over cells:                    0.033     0.033   0.0% |
 LCAO to grid:                     250.328   250.328   1.3% ||
 Set positions (LCAO WFS):           4.830     0.051   0.0% |
  Basic WFS set positions:           0.018     0.018   0.0% |
  Basis functions set positions:     0.001     0.001   0.0% |
  TCI: Calculate S, T, P:            4.759     4.759   0.0% |
PWDescriptor:                        0.527     0.527   0.0% |
SCF-cycle:                       18244.033    18.324   0.1% |
 Davidson:                       17058.258  8775.165  46.5% |------------------|
  Subspace diag:                  1386.076     0.011   0.0% |
   calc_h_matrix:                  884.080   884.080   4.7% |-|
   diagonalize:                     26.804    26.804   0.1% |
   rotate_psi:                     475.181   475.181   2.5% ||
  calc. matrices:                 4045.635  4045.635  21.4% |--------|
  diagonalize:                     964.663   964.663   5.1% |-|
  rotate_psi:                     1886.718  1886.718  10.0% |---|
 Density:                          730.418     0.001   0.0% |
  Atomic density matrices:           0.787     0.787   0.0% |
  Mix:                             282.213   282.213   1.5% ||
  Multipole moments:                 0.088     0.088   0.0% |
  Pseudo density:                  447.329   425.783   2.3% ||
   Symmetrize density:              21.547    21.547   0.1% |
 Hamiltonian:                      360.478     4.000   0.0% |
  Atomic:                           12.174     1.692   0.0% |
   XC Correction:                   10.482    10.482   0.1% |
  Calculate atomic Hamiltonians:   237.447   237.447   1.3% ||
  Communicate:                       0.015     0.015   0.0% |
  Poisson:                           5.584     5.584   0.0% |
  XC 3D grid:                      101.258   101.258   0.5% |
 Orthonormalize:                    76.555     0.001   0.0% |
  calc_s_matrix:                     9.419     9.419   0.0% |
  inverse-cholesky:                  0.348     0.348   0.0% |
  projections:                      50.762    50.762   0.3% |
  rotate_psi_s:                     16.026    16.026   0.1% |
Set symmetry:                        0.001     0.001   0.0% |
Other:                              76.515    76.515   0.4% |
-----------------------------------------------------------
Total:                                     18868.814 100.0%

Memory usage: 7.17 GiB
Date: Fri Jun 22 17:01:18 2018
