
  ___ ___ ___ _ _ _  
 |   |   |_  | | | | 
 | | | | | . | | | | 
 |__ |  _|___|_____|  1.4.0
 |___|_|             

User:   ohni@x101.nifl.fysik.dtu.dk
Date:   Wed Jul  4 10:19:57 2018
Arch:   x86_64
Pid:    18347
Python: 3.6.4
gpaw:   /home/modules/software/GPAW/1.4.0-foss-2018a-Python-3.6.4/lib/python3.6/site-packages/gpaw
_gpaw:  /home/modules/software/GPAW/1.4.0-foss-2018a-Python-3.6.4/bin/
        gpaw-python
ase:    /home/modules/software/ASE/3.16.2-foss-2018a-Python-3.6.4/lib/python3.6/site-packages/ase-3.16.2-py3.6.egg/ase (version 3.16.2)
numpy:  /home/modules/software/Python/3.6.4-foss-2018a/lib/python3.6/site-packages/numpy-1.14.0-py3.6-linux-x86_64.egg/numpy (version 1.14.0)
scipy:  /home/modules/software/Python/3.6.4-foss-2018a/lib/python3.6/site-packages/scipy-1.0.0-py3.6-linux-x86_64.egg/scipy (version 1.0.0)
units:  Angstrom and eV
cores:  24

Input parameters:
  eigensolver: {name: dav,
                niter: 2}
  gpts: [ 48 168 168]
  kpts: {size: (4, 1, 1)}
  nbands: 120%
  xc: PBE

System changes: positions, numbers, cell, pbc, initial_charges, initial_magmoms 

Initialize ...

Mo-setup:
  name: Molybdenum
  id: 296a29d4664fe6c6f68623909fe0870f
  Z: 42
  valence: 14
  core: 28
  charge: 0.0
  file: /home/modules/software/GPAW-setups/0.9.20000/Mo.PBE.gz
  cutoffs: 1.20(comp), 2.16(filt), 1.42(core), lmax=2
  valence states:
                energy  radius
    4s(2.00)   -64.307   1.238
    5s(1.00)    -4.084   1.238
    4p(6.00)   -38.491   1.296
    5p(0.00)    -1.044   1.296
    4d(5.00)    -3.754   1.296
    *d          23.458   1.296

  Using partial waves for Mo as LCAO basis

S-setup:
  name: Sulfur
  id: ca434db9faa07220b7a1d8cb6886b7a9
  Z: 16
  valence: 6
  core: 10
  charge: 0.0
  file: /home/modules/software/GPAW-setups/0.9.20000/S.PBE.gz
  cutoffs: 0.76(comp), 1.77(filt), 1.66(core), lmax=2
  valence states:
                energy  radius
    3s(2.00)   -17.254   0.974
    3p(4.00)    -7.008   0.979
    *s           9.957   0.974
    *p          20.203   0.979
    *d           0.000   0.900

  Using partial waves for S as LCAO basis

Reference energy: -7910958.745597

Spin-paired calculation

Occupation numbers:
  Fermi-Dirac: width=0.1000 eV

Convergence criteria:
  Maximum total energy change: 0.0005 eV / electron
  Maximum integral of absolute density change: 0.0001 electrons
  Maximum integral of absolute eigenstate change: 4e-08 eV^2
  Maximum number of iterations: 333

Symmetries present (total): 4

  ( 1  0  0)  ( 1  0  0)  (-1  0  0)  (-1  0  0)
  ( 0  1  0)  ( 0 -1  0)  ( 0  1  0)  ( 0 -1  0)
  ( 0  0  1)  ( 0  0 -1)  ( 0  0  1)  ( 0  0 -1)

4 k-points: 4 x 1 x 1 Monkhorst-Pack grid
2 k-points in the irreducible part of the Brillouin zone
       k-points in crystal coordinates                weights
   0:     0.12500000    0.00000000    0.00000000          2/4
   1:     0.37500000    0.00000000    0.00000000          2/4

Wave functions: Uniform real-space grid
  Kinetic energy operator: 6*3+1=19 point O(h^6) finite-difference Laplacian
  ScaLapack parameters: grid=1x1, blocksize=None 

Eigensolver
   Davidson(niter=2, smin=None, normalize=True) 

Densities:
  Coarse grid: 48*168*168 grid
  Fine grid: 96*336*336 grid
  Total Charge: 0.000000 

Density mixing:
  Method: separate
  Backend: pulay
  Linear mixing parameter: 0.05
  Mixing with 5 old densities
  Damping of long wave oscillations: 50 

Hamiltonian:
  XC and Coulomb potentials evaluated on a 96*336*336 grid
  Using the PBE Exchange-Correlation functional
  Interpolation: tri-quintic (5. degree polynomial)
  Poisson solver: Jacobi solver with 5 multi-grid levels
    Coarsest grid: 6 x 21 x 21 points
    Stencil: 6*3+1=19 point O(h^6) finite-difference Laplacian
    Max iterations: 1000
    Tolerance: 2.000000e-10 

Memory estimate:
  Process memory now: 73.07 MiB
  Calculator: 3493.33 MiB
    Density: 81.12 MiB
      Arrays: 22.39 MiB
      Localized functions: 50.11 MiB
      Mixer: 8.61 MiB
    Hamiltonian: 34.99 MiB
      Arrays: 14.64 MiB
      XC: 0.00 MiB
      Poisson: 16.73 MiB
      vbar: 3.62 MiB
    Wavefunctions: 3377.23 MiB
      Arrays psit_nG: 1612.41 MiB
      Eigensolver: 1754.73 MiB
      Projections: 3.14 MiB
      Projectors: 6.95 MiB

Total number of cores used: 24
Parallelization over k-points: 2
Domain decomposition: 1 x 4 x 3

Number of atoms: 180
Number of atomic orbitals: 1260
Number of bands in calculation: 936
Bands to converge: occupied states only
Number of valence electrons: 1560

... initialized

Initializing position-dependent things.

Density initialized from atomic densities
Creating initial wave functions:
  936 bands from LCAO basis set

                     .----------------------.  
                    /|                      |  
                   / |                      |  
                  /  |                      |  
                 /   |                      |  
                /    |                      |  
               /     |                      |  
              /      |                      |  
             /       |                      |  
            /        |                      |  
           /         |                      |  
          /          |                      |  
         /           |                      |  
        /            |                      |  
       /             |                      |  
      /              |                      |  
     /        S S    |S S     SS            |  
    /               S|     S       S        |  
   /      S  Mo   SoMo    SoMo   Mo         |  
  /            MoS   | Mo     Moo           |  
 *           S  S    S S     S S            |  
 |       Mo S    Mo S|   Mo S    S          |  
 |         S   S  S Mo S  S MoS    Mo       |  
 |                   |                      |  
 |          Mo     MoS     Mo               |  
 |     S      S Mo S |S Mo S    Mo S        |  
 |      S       SS   | S S       S          |  
 |                   |                      |  
 |     Mo     Mo    MoMo    Mo S   Mo       |  
 |       S S     S S |   SS                 |  
 |                   |                      |  
 |                 SS|    S S     S S       |  
 |     S  Mo  SMoMo  |SMoMo    Mo           |  
 |                   |                      |  
 |   S      S S     S|S      S              |  
 |    Mo  S  MoS  S  MoS  S    S            |  
 |               SMo |  S Mo    SMo         |  
 |                   |                      |  
 |     S SMo   SSMoS |S SMoS                |  
 |          SMo  S SMo   S SMo   S          |  
 |       S    S S    .S-S----S--------------.  
 |   S Mo    SMoo   /SMo      Mo           /   
 |       Mo Mo   MoMo    MoMo             /    
 |        S       S      S               /     
 |      S     SS /   S S     S          /      
 |              /                      /       
 |             /                      /        
 |            /                      /         
 |           /                      /          
 |          /                      /           
 |         /                      /            
 |        /                      /             
 |       /                      /              
 |      /                      /               
 |     /                      /                
 |    /                      /                 
 |   /                      /                  
 |  /                      /                   
 | /                      /                    
 |/                      /                     
 *----------------------*                      

Positions:
   0 Mo     0.000000   25.070500   16.304370    ( 0.0000,  0.0000,  0.0000)
   1 S      1.590000   26.608740   17.387403    ( 0.0000,  0.0000,  0.0000)
   2 S      1.590000   23.436215   17.053957    ( 0.0000,  0.0000,  0.0000)
   3 Mo    -1.590000   24.641455   19.013253    ( 0.0000,  0.0000,  0.0000)
   4 S      0.000000   25.769733   20.518621    ( 0.0000,  0.0000,  0.0000)
   5 S      0.000000   22.855523   19.221131    ( 0.0000,  0.0000,  0.0000)
   6 Mo     3.180000   25.070500   16.304370    ( 0.0000,  0.0000,  0.0000)
   7 S      4.770000   26.608740   17.387403    ( 0.0000,  0.0000,  0.0000)
   8 S      4.770000   23.436215   17.053957    ( 0.0000,  0.0000,  0.0000)
   9 Mo     1.590000   24.641455   19.013253    ( 0.0000,  0.0000,  0.0000)
  10 S      3.180000   25.769733   20.518621    ( 0.0000,  0.0000,  0.0000)
  11 S      3.180000   22.855523   19.221131    ( 0.0000,  0.0000,  0.0000)
  12 Mo     6.360000   25.070500   16.304370    ( 0.0000,  0.0000,  0.0000)
  13 S      7.950000   26.608740   17.387403    ( 0.0000,  0.0000,  0.0000)
  14 S      7.950000   23.436215   17.053957    ( 0.0000,  0.0000,  0.0000)
  15 Mo     4.770000   24.641455   19.013253    ( 0.0000,  0.0000,  0.0000)
  16 S      6.360000   25.769733   20.518621    ( 0.0000,  0.0000,  0.0000)
  17 S      6.360000   22.855523   19.221131    ( 0.0000,  0.0000,  0.0000)
  18 Mo     0.000000   23.396318   21.456972    ( 0.0000,  0.0000,  0.0000)
  19 S      1.590000   24.004190   23.237319    ( 0.0000,  0.0000,  0.0000)
  20 S      1.590000   21.633558   21.102792    ( 0.0000,  0.0000,  0.0000)
  21 Mo    -1.590000   21.456972   23.396318    ( 0.0000,  0.0000,  0.0000)
  22 S      0.000000   21.484935   25.277371    ( 0.0000,  0.0000,  0.0000)
  23 S      0.000000   19.889935   22.514750    ( 0.0000,  0.0000,  0.0000)
  24 Mo     3.180000   23.396318   21.456972    ( 0.0000,  0.0000,  0.0000)
  25 S      4.770000   24.004190   23.237319    ( 0.0000,  0.0000,  0.0000)
  26 S      4.770000   21.633558   21.102792    ( 0.0000,  0.0000,  0.0000)
  27 Mo     1.590000   21.456972   23.396318    ( 0.0000,  0.0000,  0.0000)
  28 S      3.180000   21.484935   25.277371    ( 0.0000,  0.0000,  0.0000)
  29 S      3.180000   19.889935   22.514750    ( 0.0000,  0.0000,  0.0000)
  30 Mo     6.360000   23.396318   21.456972    ( 0.0000,  0.0000,  0.0000)
  31 S      7.950000   24.004190   23.237319    ( 0.0000,  0.0000,  0.0000)
  32 S      7.950000   21.633558   21.102792    ( 0.0000,  0.0000,  0.0000)
  33 Mo     4.770000   21.456972   23.396318    ( 0.0000,  0.0000,  0.0000)
  34 S      6.360000   21.484935   25.277371    ( 0.0000,  0.0000,  0.0000)
  35 S      6.360000   19.889935   22.514750    ( 0.0000,  0.0000,  0.0000)
  36 Mo     0.000000   19.013253   24.641455    ( 0.0000,  0.0000,  0.0000)
  37 S      1.590000   18.458570   26.439084    ( 0.0000,  0.0000,  0.0000)
  38 S      1.590000   17.795332   23.318793    ( 0.0000,  0.0000,  0.0000)
  39 Mo    -1.590000   16.304370   25.070500    ( 0.0000,  0.0000,  0.0000)
  40 S      0.000000   15.221337   26.608740    ( 0.0000,  0.0000,  0.0000)
  41 S      0.000000   15.554783   23.436215    ( 0.0000,  0.0000,  0.0000)
  42 Mo     3.180000   19.013253   24.641455    ( 0.0000,  0.0000,  0.0000)
  43 S      4.770000   18.458570   26.439084    ( 0.0000,  0.0000,  0.0000)
  44 S      4.770000   17.795332   23.318793    ( 0.0000,  0.0000,  0.0000)
  45 Mo     1.590000   16.304370   25.070500    ( 0.0000,  0.0000,  0.0000)
  46 S      3.180000   15.221337   26.608740    ( 0.0000,  0.0000,  0.0000)
  47 S      3.180000   15.554783   23.436215    ( 0.0000,  0.0000,  0.0000)
  48 Mo     6.360000   19.013253   24.641455    ( 0.0000,  0.0000,  0.0000)
  49 S      7.950000   18.458570   26.439084    ( 0.0000,  0.0000,  0.0000)
  50 S      7.950000   17.795332   23.318793    ( 0.0000,  0.0000,  0.0000)
  51 Mo     4.770000   16.304370   25.070500    ( 0.0000,  0.0000,  0.0000)
  52 S      6.360000   15.221337   26.608740    ( 0.0000,  0.0000,  0.0000)
  53 S      6.360000   15.554783   23.436215    ( 0.0000,  0.0000,  0.0000)
  54 Mo     0.000000   13.595487   24.641455    ( 0.0000,  0.0000,  0.0000)
  55 S      1.590000   12.090119   25.769733    ( 0.0000,  0.0000,  0.0000)
  56 S      1.590000   13.387609   22.855523    ( 0.0000,  0.0000,  0.0000)
  57 Mo    -1.590000   11.151768   23.396318    ( 0.0000,  0.0000,  0.0000)
  58 S      0.000000    9.371421   24.004190    ( 0.0000,  0.0000,  0.0000)
  59 S      0.000000   11.505948   21.633558    ( 0.0000,  0.0000,  0.0000)
  60 Mo     3.180000   13.595487   24.641455    ( 0.0000,  0.0000,  0.0000)
  61 S      4.770000   12.090119   25.769733    ( 0.0000,  0.0000,  0.0000)
  62 S      4.770000   13.387609   22.855523    ( 0.0000,  0.0000,  0.0000)
  63 Mo     1.590000   11.151768   23.396318    ( 0.0000,  0.0000,  0.0000)
  64 S      3.180000    9.371421   24.004190    ( 0.0000,  0.0000,  0.0000)
  65 S      3.180000   11.505948   21.633558    ( 0.0000,  0.0000,  0.0000)
  66 Mo     6.360000   13.595487   24.641455    ( 0.0000,  0.0000,  0.0000)
  67 S      7.950000   12.090119   25.769733    ( 0.0000,  0.0000,  0.0000)
  68 S      7.950000   13.387609   22.855523    ( 0.0000,  0.0000,  0.0000)
  69 Mo     4.770000   11.151768   23.396318    ( 0.0000,  0.0000,  0.0000)
  70 S      6.360000    9.371421   24.004190    ( 0.0000,  0.0000,  0.0000)
  71 S      6.360000   11.505948   21.633558    ( 0.0000,  0.0000,  0.0000)
  72 Mo     0.000000    9.212422   21.456972    ( 0.0000,  0.0000,  0.0000)
  73 S      1.590000    7.331369   21.484935    ( 0.0000,  0.0000,  0.0000)
  74 S      1.590000   10.093990   19.889935    ( 0.0000,  0.0000,  0.0000)
  75 Mo    -1.590000    7.967286   19.013253    ( 0.0000,  0.0000,  0.0000)
  76 S      0.000000    6.169656   18.458570    ( 0.0000,  0.0000,  0.0000)
  77 S      0.000000    9.289947   17.795332    ( 0.0000,  0.0000,  0.0000)
  78 Mo     3.180000    9.212422   21.456972    ( 0.0000,  0.0000,  0.0000)
  79 S      4.770000    7.331369   21.484935    ( 0.0000,  0.0000,  0.0000)
  80 S      4.770000   10.093990   19.889935    ( 0.0000,  0.0000,  0.0000)
  81 Mo     1.590000    7.967286   19.013253    ( 0.0000,  0.0000,  0.0000)
  82 S      3.180000    6.169656   18.458570    ( 0.0000,  0.0000,  0.0000)
  83 S      3.180000    9.289947   17.795332    ( 0.0000,  0.0000,  0.0000)
  84 Mo     6.360000    9.212422   21.456972    ( 0.0000,  0.0000,  0.0000)
  85 S      7.950000    7.331369   21.484935    ( 0.0000,  0.0000,  0.0000)
  86 S      7.950000   10.093990   19.889935    ( 0.0000,  0.0000,  0.0000)
  87 Mo     4.770000    7.967286   19.013253    ( 0.0000,  0.0000,  0.0000)
  88 S      6.360000    6.169656   18.458570    ( 0.0000,  0.0000,  0.0000)
  89 S      6.360000    9.289947   17.795332    ( 0.0000,  0.0000,  0.0000)
  90 Mo     0.000000    7.538241   16.304370    ( 0.0000,  0.0000,  0.0000)
  91 S      1.590000    6.000000   15.221337    ( 0.0000,  0.0000,  0.0000)
  92 S      1.590000    9.172525   15.554783    ( 0.0000,  0.0000,  0.0000)
  93 Mo    -1.590000    7.967286   13.595487    ( 0.0000,  0.0000,  0.0000)
  94 S      0.000000    6.839007   12.090119    ( 0.0000,  0.0000,  0.0000)
  95 S      0.000000    9.753217   13.387609    ( 0.0000,  0.0000,  0.0000)
  96 Mo     3.180000    7.538241   16.304370    ( 0.0000,  0.0000,  0.0000)
  97 S      4.770000    6.000000   15.221337    ( 0.0000,  0.0000,  0.0000)
  98 S      4.770000    9.172525   15.554783    ( 0.0000,  0.0000,  0.0000)
  99 Mo     1.590000    7.967286   13.595487    ( 0.0000,  0.0000,  0.0000)
 100 S      3.180000    6.839007   12.090119    ( 0.0000,  0.0000,  0.0000)
 101 S      3.180000    9.753217   13.387609    ( 0.0000,  0.0000,  0.0000)
 102 Mo     6.360000    7.538241   16.304370    ( 0.0000,  0.0000,  0.0000)
 103 S      7.950000    6.000000   15.221337    ( 0.0000,  0.0000,  0.0000)
 104 S      7.950000    9.172525   15.554783    ( 0.0000,  0.0000,  0.0000)
 105 Mo     4.770000    7.967286   13.595487    ( 0.0000,  0.0000,  0.0000)
 106 S      6.360000    6.839007   12.090119    ( 0.0000,  0.0000,  0.0000)
 107 S      6.360000    9.753217   13.387609    ( 0.0000,  0.0000,  0.0000)
 108 Mo     0.000000    9.212422   11.151768    ( 0.0000,  0.0000,  0.0000)
 109 S      1.590000    8.604550    9.371421    ( 0.0000,  0.0000,  0.0000)
 110 S      1.590000   10.975182   11.505948    ( 0.0000,  0.0000,  0.0000)
 111 Mo    -1.590000   11.151768    9.212422    ( 0.0000,  0.0000,  0.0000)
 112 S      0.000000   11.123805    7.331369    ( 0.0000,  0.0000,  0.0000)
 113 S      0.000000   12.718805   10.093990    ( 0.0000,  0.0000,  0.0000)
 114 Mo     3.180000    9.212422   11.151768    ( 0.0000,  0.0000,  0.0000)
 115 S      4.770000    8.604550    9.371421    ( 0.0000,  0.0000,  0.0000)
 116 S      4.770000   10.975182   11.505948    ( 0.0000,  0.0000,  0.0000)
 117 Mo     1.590000   11.151768    9.212422    ( 0.0000,  0.0000,  0.0000)
 118 S      3.180000   11.123805    7.331369    ( 0.0000,  0.0000,  0.0000)
 119 S      3.180000   12.718805   10.093990    ( 0.0000,  0.0000,  0.0000)
 120 Mo     6.360000    9.212422   11.151768    ( 0.0000,  0.0000,  0.0000)
 121 S      7.950000    8.604550    9.371421    ( 0.0000,  0.0000,  0.0000)
 122 S      7.950000   10.975182   11.505948    ( 0.0000,  0.0000,  0.0000)
 123 Mo     4.770000   11.151768    9.212422    ( 0.0000,  0.0000,  0.0000)
 124 S      6.360000   11.123805    7.331369    ( 0.0000,  0.0000,  0.0000)
 125 S      6.360000   12.718805   10.093990    ( 0.0000,  0.0000,  0.0000)
 126 Mo     0.000000   13.595487    7.967286    ( 0.0000,  0.0000,  0.0000)
 127 S      1.590000   14.150170    6.169656    ( 0.0000,  0.0000,  0.0000)
 128 S      1.590000   14.813408    9.289947    ( 0.0000,  0.0000,  0.0000)
 129 Mo    -1.590000   16.304370    7.538241    ( 0.0000,  0.0000,  0.0000)
 130 S      0.000000   17.387403    6.000000    ( 0.0000,  0.0000,  0.0000)
 131 S      0.000000   17.053957    9.172525    ( 0.0000,  0.0000,  0.0000)
 132 Mo     3.180000   13.595487    7.967286    ( 0.0000,  0.0000,  0.0000)
 133 S      4.770000   14.150170    6.169656    ( 0.0000,  0.0000,  0.0000)
 134 S      4.770000   14.813408    9.289947    ( 0.0000,  0.0000,  0.0000)
 135 Mo     1.590000   16.304370    7.538241    ( 0.0000,  0.0000,  0.0000)
 136 S      3.180000   17.387403    6.000000    ( 0.0000,  0.0000,  0.0000)
 137 S      3.180000   17.053957    9.172525    ( 0.0000,  0.0000,  0.0000)
 138 Mo     6.360000   13.595487    7.967286    ( 0.0000,  0.0000,  0.0000)
 139 S      7.950000   14.150170    6.169656    ( 0.0000,  0.0000,  0.0000)
 140 S      7.950000   14.813408    9.289947    ( 0.0000,  0.0000,  0.0000)
 141 Mo     4.770000   16.304370    7.538241    ( 0.0000,  0.0000,  0.0000)
 142 S      6.360000   17.387403    6.000000    ( 0.0000,  0.0000,  0.0000)
 143 S      6.360000   17.053957    9.172525    ( 0.0000,  0.0000,  0.0000)
 144 Mo     0.000000   19.013253    7.967286    ( 0.0000,  0.0000,  0.0000)
 145 S      1.590000   20.518621    6.839007    ( 0.0000,  0.0000,  0.0000)
 146 S      1.590000   19.221131    9.753217    ( 0.0000,  0.0000,  0.0000)
 147 Mo    -1.590000   21.456972    9.212422    ( 0.0000,  0.0000,  0.0000)
 148 S      0.000000   23.237319    8.604550    ( 0.0000,  0.0000,  0.0000)
 149 S      0.000000   21.102792   10.975182    ( 0.0000,  0.0000,  0.0000)
 150 Mo     3.180000   19.013253    7.967286    ( 0.0000,  0.0000,  0.0000)
 151 S      4.770000   20.518621    6.839007    ( 0.0000,  0.0000,  0.0000)
 152 S      4.770000   19.221131    9.753217    ( 0.0000,  0.0000,  0.0000)
 153 Mo     1.590000   21.456972    9.212422    ( 0.0000,  0.0000,  0.0000)
 154 S      3.180000   23.237319    8.604550    ( 0.0000,  0.0000,  0.0000)
 155 S      3.180000   21.102792   10.975182    ( 0.0000,  0.0000,  0.0000)
 156 Mo     6.360000   19.013253    7.967286    ( 0.0000,  0.0000,  0.0000)
 157 S      7.950000   20.518621    6.839007    ( 0.0000,  0.0000,  0.0000)
 158 S      7.950000   19.221131    9.753217    ( 0.0000,  0.0000,  0.0000)
 159 Mo     4.770000   21.456972    9.212422    ( 0.0000,  0.0000,  0.0000)
 160 S      6.360000   23.237319    8.604550    ( 0.0000,  0.0000,  0.0000)
 161 S      6.360000   21.102792   10.975182    ( 0.0000,  0.0000,  0.0000)
 162 Mo     0.000000   23.396318   11.151768    ( 0.0000,  0.0000,  0.0000)
 163 S      1.590000   25.277371   11.123805    ( 0.0000,  0.0000,  0.0000)
 164 S      1.590000   22.514750   12.718805    ( 0.0000,  0.0000,  0.0000)
 165 Mo    -1.590000   24.641455   13.595487    ( 0.0000,  0.0000,  0.0000)
 166 S      0.000000   26.439084   14.150170    ( 0.0000,  0.0000,  0.0000)
 167 S      0.000000   23.318793   14.813408    ( 0.0000,  0.0000,  0.0000)
 168 Mo     3.180000   23.396318   11.151768    ( 0.0000,  0.0000,  0.0000)
 169 S      4.770000   25.277371   11.123805    ( 0.0000,  0.0000,  0.0000)
 170 S      4.770000   22.514750   12.718805    ( 0.0000,  0.0000,  0.0000)
 171 Mo     1.590000   24.641455   13.595487    ( 0.0000,  0.0000,  0.0000)
 172 S      3.180000   26.439084   14.150170    ( 0.0000,  0.0000,  0.0000)
 173 S      3.180000   23.318793   14.813408    ( 0.0000,  0.0000,  0.0000)
 174 Mo     6.360000   23.396318   11.151768    ( 0.0000,  0.0000,  0.0000)
 175 S      7.950000   25.277371   11.123805    ( 0.0000,  0.0000,  0.0000)
 176 S      7.950000   22.514750   12.718805    ( 0.0000,  0.0000,  0.0000)
 177 Mo     4.770000   24.641455   13.595487    ( 0.0000,  0.0000,  0.0000)
 178 S      6.360000   26.439084   14.150170    ( 0.0000,  0.0000,  0.0000)
 179 S      6.360000   23.318793   14.813408    ( 0.0000,  0.0000,  0.0000)

Unit cell:
           periodic     x           y           z      points  spacing
  1. axis:    yes    9.540000    0.000000    0.000000    48     0.1988
  2. axis:    yes    0.000000   32.608740    0.000000   168     0.1941
  3. axis:    yes    0.000000    0.000000   32.608740   168     0.1941

  Lengths:   9.540000  32.608740  32.608740
  Angles:   90.000000  90.000000  90.000000

Effective grid spacing dv^(1/3) = 0.1956

                     log10-error:    total        iterations:
           time      wfs    density  energy       fermi  poisson
iter:   1  10:32:15  +1.02   +inf  -1363.379601    3      48     
iter:   2  10:41:41  +0.21   +inf  -1379.873416    3             
iter:   3  10:51:08  -0.22   +inf  -1384.447207    2             
iter:   4  11:00:44  -0.43  -1.10  -1349.702055    6      24     
iter:   5  11:10:19  +0.19  -1.16  -1297.178271    36     31     
iter:   6  11:19:57  -0.67  -1.33  -1297.738627    10     32     
iter:   7  11:29:31  -0.28  -1.38  -1293.407290    9      31     
iter:   8  11:39:06  +0.04  -1.56  -1317.979976    31     35     
iter:   9  11:48:40  -0.31  -1.45  -1291.060162    36     28     
iter:  10  11:58:14  -1.29  -1.74  -1288.617151    4      22     
iter:  11  12:07:48  -0.66  -1.89  -1293.217603    8      24     
iter:  12  12:17:21  -1.43  -1.80  -1286.655105    5      21     
iter:  13  12:26:57  -1.33  -2.40  -1286.523891    4      20     
iter:  14  12:36:29  -2.08  -2.49  -1286.494389    2      7      
iter:  15  12:46:00  -2.62  -2.58  -1286.389431    3      15     
iter:  16  12:55:31  -3.20  -3.00  -1286.397982    2      6      
iter:  17  13:05:01  -3.18  -3.08  -1286.393291    3      14     
iter:  18  13:14:30  -3.52  -3.37  -1286.390514    2      5      
iter:  19  13:23:59  -4.17  -3.52  -1286.383585    2      5      
iter:  20  13:33:27  -4.41  -3.56  -1286.384847    1      4      
iter:  21  13:42:55  -4.51  -3.57  -1286.392067    2      4      
iter:  22  13:52:26  -5.05  -3.61  -1286.387871    2      4      
iter:  23  14:01:58  -5.05  -3.64  -1286.387288    1      5      
iter:  24  14:11:26  -5.06  -3.81  -1286.385385    2      5      
iter:  25  14:20:55  -5.61  -4.16  -1286.389435    2      3      
iter:  26  14:30:22  -5.67  -4.23  -1286.391677    2      3      
iter:  27  14:39:48  -5.97  -4.27  -1286.388057    2      3      
iter:  28  14:49:15  -6.14  -4.34  -1286.389329    1      3      
iter:  29  14:58:41  -6.29  -4.45  -1286.389558    1      3      
iter:  30  15:08:12  -6.15  -4.54  -1286.385380    2      3      
iter:  31  15:17:42  -6.70  -4.58  -1286.389087    2      3      
iter:  32  15:27:15  -6.92  -4.72  -1286.387630    1      2      
iter:  33  15:36:47  -6.97  -4.81  -1286.387092    2      3      
iter:  34  15:46:19  -7.31  -4.84  -1286.389082    1      2      
iter:  35  15:55:50  -7.41  -4.95  -1286.388366    1      1      

Converged after 35 iterations.

Dipole moment: (-130.781780, 0.000005, 0.000005) |e|*Ang

Energy contributions relative to reference atoms: (reference = -7910958.745597)

Kinetic:        -76.478949
Potential:     -286.309812
External:        +0.000000
XC:            -928.858137
Entropy (-ST):   -0.007481
Local:           +5.262273
--------------------------
Free energy:   -1286.392107
Extrapolated:  -1286.388366

Fermi level: -0.84473

Showing all kpts
 Kpt  Band  Eigenvalues  Occupancy
  0   778     -1.68147    0.99977
  0   779     -1.63839    0.99964
  0   780     -0.04064    0.00032
  0   781     -0.01608    0.00025

  1   778     -1.65444    0.99970
  1   779     -1.59943    0.99947
  1   780      0.09427    0.00008
  1   781      0.09429    0.00008



Forces in eV/Ang:
  0 Mo    0.00000    0.99879    0.41236
  1 S     0.00000   -0.96106    0.12382
  2 S     0.00000    0.37098   -0.75643
  3 Mo    0.00000    0.86346    0.72466
  4 S     0.00000   -0.97611   -0.16695
  5 S    -0.00000    0.57962   -0.61302
  6 Mo    0.00000    0.99879    0.41236
  7 S     0.00000   -0.96106    0.12382
  8 S     0.00000    0.37098   -0.75643
  9 Mo   -0.00000    0.86346    0.72466
 10 S     0.00000   -0.97611   -0.16695
 11 S    -0.00000    0.57962   -0.61302
 12 Mo   -0.00000    0.99879    0.41236
 13 S    -0.00000   -0.96106    0.12382
 14 S    -0.00000    0.37098   -0.75643
 15 Mo    0.00000    0.86346    0.72466
 16 S    -0.00000   -0.97611   -0.16695
 17 S     0.00000    0.57962   -0.61302
 18 Mo    0.00000    0.57940    0.93110
 19 S     0.00000   -0.80204   -0.49863
 20 S     0.00000    0.78509   -0.43670
 21 Mo    0.00000    0.25994    1.06723
 22 S     0.00000   -0.59166   -0.74562
 23 S     0.00000    0.72151   -0.14377
 24 Mo   -0.00000    0.57940    0.93110
 25 S     0.00000   -0.80204   -0.49863
 26 S     0.00000    0.78509   -0.43670
 27 Mo   -0.00000    0.25994    1.06723
 28 S    -0.00000   -0.59166   -0.74562
 29 S    -0.00000    0.72151   -0.14377
 30 Mo    0.00000    0.57940    0.93110
 31 S    -0.00000   -0.80204   -0.49863
 32 S    -0.00000    0.78509   -0.43670
 33 Mo    0.00000    0.25994    1.06723
 34 S     0.00000   -0.59166   -0.74562
 35 S     0.00000    0.72151   -0.14377
 36 Mo    0.00000   -0.06086    1.11833
 37 S     0.00000   -0.42848   -0.94788
 38 S     0.00000    0.78610    0.10076
 39 Mo   -0.00000   -0.41236    0.99879
 40 S     0.00000   -0.12382   -0.96106
 41 S     0.00000    0.75643    0.37098
 42 Mo    0.00000   -0.06086    1.11833
 43 S     0.00000   -0.42848   -0.94788
 44 S     0.00000    0.78610    0.10076
 45 Mo    0.00000   -0.41236    0.99879
 46 S    -0.00000   -0.12382   -0.96106
 47 S    -0.00000    0.75643    0.37098
 48 Mo   -0.00000   -0.06086    1.11833
 49 S    -0.00000   -0.42848   -0.94788
 50 S    -0.00000    0.78610    0.10076
 51 Mo    0.00000   -0.41236    0.99879
 52 S     0.00000   -0.12382   -0.96106
 53 S     0.00000    0.75643    0.37098
 54 Mo    0.00000   -0.72466    0.86346
 55 S     0.00000    0.16695   -0.97611
 56 S     0.00000    0.61302    0.57962
 57 Mo   -0.00000   -0.93110    0.57940
 58 S     0.00000    0.49863   -0.80204
 59 S    -0.00000    0.43670    0.78509
 60 Mo   -0.00000   -0.72466    0.86346
 61 S    -0.00000    0.16695   -0.97611
 62 S     0.00000    0.61302    0.57962
 63 Mo    0.00000   -0.93110    0.57940
 64 S     0.00000    0.49863   -0.80204
 65 S     0.00000    0.43670    0.78509
 66 Mo    0.00000   -0.72466    0.86346
 67 S    -0.00000    0.16695   -0.97611
 68 S    -0.00000    0.61302    0.57962
 69 Mo    0.00000   -0.93110    0.57940
 70 S    -0.00000    0.49863   -0.80204
 71 S    -0.00000    0.43670    0.78509
 72 Mo    0.00000   -1.06723    0.25994
 73 S    -0.00000    0.74562   -0.59166
 74 S    -0.00000    0.14377    0.72151
 75 Mo    0.00000   -1.11833   -0.06086
 76 S     0.00000    0.94788   -0.42848
 77 S    -0.00000   -0.10076    0.78610
 78 Mo   -0.00000   -1.06723    0.25994
 79 S     0.00000    0.74562   -0.59166
 80 S     0.00000    0.14377    0.72151
 81 Mo   -0.00000   -1.11833   -0.06086
 82 S     0.00000    0.94788   -0.42848
 83 S     0.00000   -0.10076    0.78610
 84 Mo    0.00000   -1.06723    0.25994
 85 S     0.00000    0.74562   -0.59166
 86 S     0.00000    0.14377    0.72151
 87 Mo    0.00000   -1.11833   -0.06086
 88 S    -0.00000    0.94788   -0.42848
 89 S    -0.00000   -0.10076    0.78610
 90 Mo    0.00000   -0.99879   -0.41236
 91 S     0.00000    0.96106   -0.12382
 92 S     0.00000   -0.37098    0.75643
 93 Mo    0.00000   -0.86346   -0.72466
 94 S     0.00000    0.97611    0.16695
 95 S    -0.00000   -0.57962    0.61302
 96 Mo    0.00000   -0.99879   -0.41236
 97 S     0.00000    0.96106   -0.12382
 98 S     0.00000   -0.37098    0.75643
 99 Mo   -0.00000   -0.86346   -0.72466
100 S     0.00000    0.97611    0.16695
101 S    -0.00000   -0.57962    0.61302
102 Mo   -0.00000   -0.99879   -0.41236
103 S    -0.00000    0.96106   -0.12382
104 S    -0.00000   -0.37098    0.75643
105 Mo    0.00000   -0.86346   -0.72466
106 S    -0.00000    0.97611    0.16695
107 S     0.00000   -0.57962    0.61302
108 Mo    0.00000   -0.57940   -0.93110
109 S     0.00000    0.80204    0.49863
110 S     0.00000   -0.78509    0.43670
111 Mo    0.00000   -0.25994   -1.06723
112 S     0.00000    0.59166    0.74562
113 S     0.00000   -0.72151    0.14377
114 Mo   -0.00000   -0.57940   -0.93110
115 S     0.00000    0.80204    0.49863
116 S     0.00000   -0.78509    0.43670
117 Mo   -0.00000   -0.25994   -1.06723
118 S    -0.00000    0.59166    0.74562
119 S    -0.00000   -0.72151    0.14377
120 Mo    0.00000   -0.57940   -0.93110
121 S    -0.00000    0.80204    0.49863
122 S    -0.00000   -0.78509    0.43670
123 Mo    0.00000   -0.25994   -1.06723
124 S     0.00000    0.59166    0.74562
125 S     0.00000   -0.72151    0.14377
126 Mo    0.00000    0.06086   -1.11833
127 S     0.00000    0.42848    0.94788
128 S     0.00000   -0.78610   -0.10076
129 Mo   -0.00000    0.41236   -0.99879
130 S     0.00000    0.12382    0.96106
131 S     0.00000   -0.75643   -0.37098
132 Mo    0.00000    0.06086   -1.11833
133 S     0.00000    0.42848    0.94788
134 S     0.00000   -0.78610   -0.10076
135 Mo    0.00000    0.41236   -0.99879
136 S    -0.00000    0.12382    0.96106
137 S    -0.00000   -0.75643   -0.37098
138 Mo   -0.00000    0.06086   -1.11833
139 S    -0.00000    0.42848    0.94788
140 S    -0.00000   -0.78610   -0.10076
141 Mo    0.00000    0.41236   -0.99879
142 S     0.00000    0.12382    0.96106
143 S     0.00000   -0.75643   -0.37098
144 Mo    0.00000    0.72466   -0.86346
145 S     0.00000   -0.16695    0.97611
146 S     0.00000   -0.61302   -0.57962
147 Mo   -0.00000    0.93110   -0.57940
148 S     0.00000   -0.49863    0.80204
149 S    -0.00000   -0.43670   -0.78509
150 Mo   -0.00000    0.72466   -0.86346
151 S    -0.00000   -0.16695    0.97611
152 S     0.00000   -0.61302   -0.57962
153 Mo    0.00000    0.93110   -0.57940
154 S     0.00000   -0.49863    0.80204
155 S     0.00000   -0.43670   -0.78509
156 Mo    0.00000    0.72466   -0.86346
157 S    -0.00000   -0.16695    0.97611
158 S    -0.00000   -0.61302   -0.57962
159 Mo    0.00000    0.93110   -0.57940
160 S    -0.00000   -0.49863    0.80204
161 S    -0.00000   -0.43670   -0.78509
162 Mo    0.00000    1.06723   -0.25994
163 S    -0.00000   -0.74562    0.59166
164 S    -0.00000   -0.14377   -0.72151
165 Mo    0.00000    1.11833    0.06086
166 S     0.00000   -0.94788    0.42848
167 S     0.00000    0.10076   -0.78610
168 Mo   -0.00000    1.06723   -0.25994
169 S     0.00000   -0.74562    0.59166
170 S     0.00000   -0.14377   -0.72151
171 Mo   -0.00000    1.11833    0.06086
172 S     0.00000   -0.94788    0.42848
173 S     0.00000    0.10076   -0.78610
174 Mo    0.00000    1.06723   -0.25994
175 S     0.00000   -0.74562    0.59166
176 S     0.00000   -0.14377   -0.72151
177 Mo    0.00000    1.11833    0.06086
178 S    -0.00000   -0.94788    0.42848
179 S    -0.00000    0.10076   -0.78610

Timing:                              incl.     excl.
-----------------------------------------------------------
Forces:                             38.813    38.813   0.2% |
Hamiltonian:                        10.639     0.000   0.0% |
 Atomic:                             0.408     0.004   0.0% |
  XC Correction:                     0.404     0.404   0.0% |
 Calculate atomic Hamiltonians:      0.042     0.042   0.0% |
 Communicate:                        0.075     0.075   0.0% |
 Hartree integrate/restrict:         0.027     0.027   0.0% |
 Initialize Hamiltonian:             0.000     0.000   0.0% |
 Poisson:                            9.370     9.370   0.0% |
 XC 3D grid:                         0.710     0.710   0.0% |
 vbar:                               0.007     0.007   0.0% |
LCAO initialization:               110.771     0.229   0.0% |
 LCAO eigensolver:                  12.262     0.008   0.0% |
  Calculate projections:             0.000     0.000   0.0% |
  DenseAtomicCorrection:             0.000     0.000   0.0% |
  Distribute overlap matrix:         2.201     2.201   0.0% |
  Orbital Layouts:                   9.919     9.919   0.0% |
  Potential matrix:                  0.093     0.093   0.0% |
  Sum over cells:                    0.041     0.041   0.0% |
 LCAO to grid:                      97.164    97.164   0.5% |
 Set positions (LCAO WFS):           1.117     0.663   0.0% |
  Basic WFS set positions:           0.019     0.019   0.0% |
  Basis functions set positions:     0.001     0.001   0.0% |
  TCI: Calculate S, T, P:            0.435     0.435   0.0% |
SCF-cycle:                       20029.331    52.850   0.3% |
 Davidson:                       19753.606  2107.599  10.4% |---|
  Apply hamiltonian:               703.391   703.391   3.5% ||
  Subspace diag:                  3535.238     0.007   0.0% |
   calc_h_matrix:                 1473.593  1218.046   6.0% |-|
    Apply hamiltonian:             255.547   255.547   1.3% ||
   diagonalize:                     54.165    54.165   0.3% |
   rotate_psi:                    2007.474  2007.474   9.9% |---|
  calc. matrices:                 8266.103  7794.006  38.6% |--------------|
   Apply hamiltonian:              472.097   472.097   2.3% ||
  diagonalize:                    1126.128  1126.128   5.6% |-|
  rotate_psi:                     4015.148  4015.148  19.9% |-------|
 Density:                           53.542     0.001   0.0% |
  Atomic density matrices:           0.602     0.602   0.0% |
  Mix:                               1.189     1.189   0.0% |
  Multipole moments:                 0.022     0.022   0.0% |
  Pseudo density:                   51.728    38.930   0.2% |
   Symmetrize density:              12.797    12.797   0.1% |
 Hamiltonian:                      115.542     0.005   0.0% |
  Atomic:                           13.018     0.120   0.0% |
   XC Correction:                   12.899    12.899   0.1% |
  Calculate atomic Hamiltonians:     1.035     1.035   0.0% |
  Communicate:                       1.975     1.975   0.0% |
  Hartree integrate/restrict:        1.036     1.036   0.0% |
  Poisson:                          75.076    75.076   0.4% |
  XC 3D grid:                       23.213    23.213   0.1% |
  vbar:                              0.184     0.184   0.0% |
 Orthonormalize:                    53.791     0.000   0.0% |
  calc_s_matrix:                    16.714    16.714   0.1% |
  inverse-cholesky:                  0.711     0.711   0.0% |
  projections:                       8.884     8.884   0.0% |
  rotate_psi_s:                     27.481    27.481   0.1% |
Set symmetry:                        0.001     0.001   0.0% |
Other:                               1.636     1.636   0.0% |
-----------------------------------------------------------
Total:                                     20191.192 100.0%

Memory usage: 5.26 GiB
Date: Wed Jul  4 15:56:28 2018
