
  ___ ___ ___ _ _ _  
 |   |   |_  | | | | 
 | | | | | . | | | | 
 |__ |  _|___|_____|  1.4.0
 |___|_|             

User:   ohni@x154.nifl.fysik.dtu.dk
Date:   Wed Jul  4 10:20:29 2018
Arch:   x86_64
Pid:    2799
Python: 3.6.4
gpaw:   /home/modules/software/GPAW/1.4.0-foss-2018a-Python-3.6.4/lib/python3.6/site-packages/gpaw
_gpaw:  /home/modules/software/GPAW/1.4.0-foss-2018a-Python-3.6.4/bin/
        gpaw-python
ase:    /home/modules/software/ASE/3.16.2-foss-2018a-Python-3.6.4/lib/python3.6/site-packages/ase-3.16.2-py3.6.egg/ase (version 3.16.2)
numpy:  /home/modules/software/Python/3.6.4-foss-2018a/lib/python3.6/site-packages/numpy-1.14.0-py3.6-linux-x86_64.egg/numpy (version 1.14.0)
scipy:  /home/modules/software/Python/3.6.4-foss-2018a/lib/python3.6/site-packages/scipy-1.0.0-py3.6-linux-x86_64.egg/scipy (version 1.0.0)
units:  Angstrom and eV
cores:  24

Input parameters:
  convergence: {bands: -4}
  eigensolver: {name: dav,
                niter: 2}
  kpts: {density: 12,
         gamma: True}
  mode: {ecut: 1200.0,
         name: pw}
  nbands: 140%
  occupations: {name: fermi-dirac,
                width: 0.01}
  setups: {Ru: :d,4.0}
  xc: PBE

System changes: positions, numbers, cell, pbc, initial_charges, initial_magmoms 

Initialize ...

Ru-setup:
  name: Ruthenium
  id: 670232e5f51aeb2542f664849653fb2d
  Z: 44
  valence: 16
  core: 28
  charge: 0.0
  Hubbard U: 4.000000 eV (l=2, scale=True)
  file: /home/modules/software/GPAW-setups/0.9.20000/Ru.PBE.gz
  cutoffs: 1.23(comp), 2.16(filt), 1.30(core), lmax=2
  valence states:
                energy  radius
    4s(2.00)   -76.316   1.281
    5s(1.00)    -4.236   1.281
    4p(6.00)   -46.423   1.286
    5p(0.00)    -0.913   1.286
    4d(7.00)    -5.203   1.254
    *d          22.008   1.254

  Using partial waves for Ru as LCAO basis

Cl-setup:
  name: Chlorine
  id: 726897f06f34e53cf8e33b5885a02604
  Z: 17
  valence: 7
  core: 10
  charge: 0.0
  file: /home/modules/software/GPAW-setups/0.9.20000/Cl.PBE.gz
  cutoffs: 0.79(comp), 1.40(filt), 1.49(core), lmax=2
  valence states:
                energy  radius
    3s(2.00)   -20.689   0.794
    3p(5.00)    -8.594   0.794
    *s           6.523   0.794
    *p          18.617   0.794
    *d           0.000   0.794

  Using partial waves for Cl as LCAO basis

Reference energy: -321819.946340

Spin-polarized calculation.
Magnetic moment: 0.000000

Occupation numbers:
  Fermi-Dirac: width=0.0100 eV

Convergence criteria:
  Maximum total energy change: 0.0005 eV / electron
  Maximum integral of absolute density change: 0.0001 electrons
  Maximum integral of absolute eigenstate change: 4e-08 eV^2
  Maximum number of iterations: 333

Symmetries present (total): 12

  ( 1  1  0)  ( 1  1  0)  ( 1  0  0)  ( 1  0  0)  ( 0  1  0)  ( 0  1  0)
  ( 0 -1  0)  (-1  0  0)  ( 0  1  0)  (-1 -1  0)  ( 1  0  0)  (-1 -1  0)
  ( 0  0 -1)  ( 0  0 -1)  ( 0  0  1)  ( 0  0  1)  ( 0  0  1)  ( 0  0  1)

  ( 0 -1  0)  ( 0 -1  0)  (-1  0  0)  (-1  0  0)  (-1 -1  0)  (-1 -1  0)
  ( 1  1  0)  (-1  0  0)  ( 1  1  0)  ( 0 -1  0)  ( 1  0  0)  ( 0  1  0)
  ( 0  0 -1)  ( 0  0 -1)  ( 0  0 -1)  ( 0  0 -1)  ( 0  0  1)  ( 0  0  1)

3150 k-points: 15 x 15 x 14 Monkhorst-Pack grid + [0.000000,0.000000,1/28]
330 k-points in the irreducible part of the Brillouin zone
       k-points in crystal coordinates                weights
   0:     0.00000000    0.00000000    0.00000000          1/3150
   1:     0.00000000    0.00000000    0.07142857          2/3150
   2:     0.00000000    0.00000000    0.14285714          2/3150
   3:     0.00000000    0.00000000    0.21428571          2/3150
   4:     0.00000000    0.00000000    0.28571429          2/3150
   5:     0.00000000    0.00000000    0.35714286          2/3150
   6:     0.00000000    0.00000000    0.42857143          2/3150
   7:     0.00000000    0.00000000    0.50000000          1/3150
   8:     0.06666667    0.00000000    0.00000000          6/3150
   9:     0.06666667    0.00000000    0.07142857         12/3150
          ...
 329:     0.46666667    0.46666667    0.50000000          6/3150

Wave functions: Plane wave expansion
  Cutoff energy: 1200.000 eV
  Number of coefficients (min, max): 17268, 17378
  Pulay-stress correction: 0.000000 eV/Ang^3 (de/decut=0.000000)
  Using FFTW library
  ScaLapack parameters: grid=1x1, blocksize=None 

Eigensolver
   Davidson(niter=2, smin=None, normalize=True) 

Densities:
  Coarse grid: 42*42*45 grid
  Fine grid: 84*84*90 grid
  Total Charge: 0.000000 

Density mixing:
  Method: sum
  Backend: pulay
  Linear mixing parameter: 0.05
  Mixing with 5 old densities
  Damping of long wave oscillations: 50 

Hamiltonian:
  XC and Coulomb potentials evaluated on a 84*84*90 grid
  Using the PBE Exchange-Correlation functional
 

Memory estimate:
  Process memory now: 112.46 MiB
  Calculator: 520.45 MiB
    Density: 41.81 MiB
      Arrays: 21.20 MiB
      Localized functions: 14.56 MiB
      Mixer: 6.06 MiB
    Hamiltonian: 16.10 MiB
      Arrays: 15.75 MiB
      XC: 0.00 MiB
      Poisson: 0.00 MiB
      vbar: 0.36 MiB
    Wavefunctions: 462.54 MiB
      Arrays psit_nG: 365.14 MiB
      Eigensolver: 15.25 MiB
      Projections: 2.40 MiB
      Projectors: 71.38 MiB
      PW-descriptor: 8.38 MiB

Total number of cores used: 24
Parallelization over k-points and spin: 24
Domain decomposition: 1 x 1 x 1
                      2 x 3 x 4 (xc only)

Number of atoms: 8
Number of atomic orbitals: 50
Number of bands in calculation: 51
Bands to converge: -4 lowest bands
Number of valence electrons: 74

... initialized

Initializing position-dependent things.

Density initialized from atomic densities
Creating initial wave functions:
  50 bands from LCAO basis set
  1 band from random numbers

                                   
                                   
                                   
                                   
          Cl                       
                Cl                 
                       Cl          
                    Cl             
             Ru                    
           Cl                      
                 Cl                
             Ru                    
                                   
                                   
                                   
                                   

Positions:
   0 Ru     0.000000    0.000000    2.829000    ( 0.0000,  0.0000, -1.0000)
   1 Ru     0.000000    0.000000    0.000000    ( 0.0000,  0.0000,  1.0000)
   2 Cl     2.132820    3.694153    1.414500    ( 0.0000,  0.0000,  0.0000)
   3 Cl     1.854360    0.000000    1.414500    ( 0.0000,  0.0000,  0.0000)
   4 Cl    -0.927180    1.605923    1.414500    ( 0.0000,  0.0000,  0.0000)
   5 Cl     0.927180    1.605923    4.243500    ( 0.0000,  0.0000,  0.0000)
   6 Cl     4.265640    0.000000    4.243500    ( 0.0000,  0.0000,  0.0000)
   7 Cl    -2.132820    3.694153    4.243500    ( 0.0000,  0.0000,  0.0000)

Unit cell:
           periodic     x           y           z      points  spacing
  1. axis:    yes    6.120000    0.000000    0.000000    42     0.1262
  2. axis:    yes   -3.060000    5.300075    0.000000    42     0.1262
  3. axis:    yes    0.000000    0.000000    5.658000    45     0.1257

  Lengths:   6.120000   6.120000   5.658000
  Angles:   90.000000  90.000000 120.000000

Effective grid spacing dv^(1/3) = 0.1322

                     log10-error:    total        iterations:
           time      wfs    density  energy       fermi  poisson  magmom
iter:   1  10:21:54  +0.83   +inf   -26.912398    2               -0.0000
iter:   2  10:22:57  -0.04   +inf   -27.116081    2               -0.0000
iter:   3  10:24:00  -0.56   +inf   -27.135950    2               -0.0000
iter:   4  10:25:10  -1.01  -1.34   -26.666976    5               -0.0000
iter:   5  10:26:19  -1.10  -1.39   -26.463630    33              -0.0000
iter:   6  10:27:29  -1.34  -1.49   -27.509216    4               -0.0000
iter:   7  10:28:38  -1.35  -1.69   -28.562223    10              -0.0000
iter:   8  10:29:47  -1.89  -2.05   -28.592161    4               -0.0000
iter:   9  10:30:57  -2.00  -2.12   -28.907872    0               +0.0000
iter:  10  10:32:06  -2.44  -2.39   -28.791694    0               -0.0000
iter:  11  10:33:15  -2.71  -2.32   -28.867156    0               -0.0000
iter:  12  10:34:24  -2.29  -2.38   -29.214835    0               +0.0000
iter:  13  10:35:33  -2.94  -2.54   -29.221120    0               +0.0000
iter:  14  10:36:43  -3.49  -2.92   -29.201059    0               +0.0000
iter:  15  10:37:52  -3.31  -2.85   -29.232785    0               +0.0000
iter:  16  10:39:01  -3.84  -2.95   -29.241445    0               +0.0000
iter:  17  10:40:10  -3.33  -3.05   -29.262982    0               +0.0000
iter:  18  10:41:20  -4.00  -3.07   -29.263642    0               +0.0000
iter:  19  10:42:29  -4.59  -3.19   -29.264251    0               +0.0000
iter:  20  10:43:38  -4.19  -3.20   -29.262423    0               +0.0000
iter:  21  10:44:47  -4.68  -3.46   -29.265627    0               -0.0000
iter:  22  10:45:56  -5.18  -3.54   -29.266034    0               -0.0000
iter:  23  10:47:06  -5.20  -3.66   -29.266335    0               +0.0000
iter:  24  10:48:15  -5.58  -3.92   -29.266459    0               +0.0000
iter:  25  10:49:24  -5.42  -4.05   -29.266600    0               +0.0000
iter:  26  10:50:33  -5.89  -4.13   -29.266601    0               +0.0000
iter:  27  10:51:42  -6.65  -4.25   -29.266643    0               +0.0000
iter:  28  10:52:52  -6.14  -4.27   -29.266789    0               +0.0000
iter:  29  10:54:01  -6.36  -4.45   -29.266802    0               +0.0000
iter:  30  10:55:10  -6.82  -4.51   -29.266825    0               +0.0000
iter:  31  10:56:19  -7.05  -4.56   -29.266841    0               +0.0000
iter:  32  10:57:28  -7.15  -4.65   -29.266866    0               +0.0000
iter:  33  10:58:38  -7.15  -4.79   -29.266891    0               +0.0000
iter:  34  10:59:47  -7.03  -4.87   -29.266920    0               +0.0000
iter:  35  11:00:56  -7.47  -5.00   -29.266929    0               +0.0000

Converged after 35 iterations.

Dipole moment: (-0.000000, 0.000000, -0.000000) |e|*Ang

Total magnetic moment: (0.000000, 0.000000, -0.000000)
Local magnetic moments:
   0 Ru ( 0.000000,  0.000000, -0.839202)
   1 Ru ( 0.000000,  0.000000,  0.839201)
   2 Cl ( 0.000000,  0.000000, -0.000000)
   3 Cl ( 0.000000,  0.000000, -0.000000)
   4 Cl ( 0.000000,  0.000000, -0.000000)
   5 Cl ( 0.000000,  0.000000, -0.000000)
   6 Cl ( 0.000000,  0.000000, -0.000000)
   7 Cl ( 0.000000,  0.000000, -0.000000)

Energy contributions relative to reference atoms: (reference = -321819.946340)

Kinetic:        +65.670755
Potential:      -62.931675
External:        +0.000000
XC:             -31.404303
Entropy (-ST):   -0.000000
Local:           -0.601705
--------------------------
Free energy:    -29.266929
Extrapolated:   -29.266929

Spin contamination: 1.073289 electrons
Fermi level: 2.80967

Warning: Showing only first 2 kpts
                      Up                     Down
 Kpt  Band  Eigenvalues  Occupancy  Eigenvalues  Occupancy
  0    35      2.44833    0.00032      2.44833    0.00032
  0    36      2.44886    0.00032      2.44886    0.00032
  0    37      5.08157    0.00000      5.08157    0.00000
  0    38      5.14138    0.00000      5.14138    0.00000

  1    35      2.44347    0.00063      2.44346    0.00063
  1    36      2.44400    0.00063      2.44400    0.00063
  1    37      5.04336    0.00000      5.04336    0.00000
  1    38      5.17151    0.00000      5.17151    0.00000


Writing to Ru2Cl6.gpw (mode='')

Timing:                              incl.     excl.
-----------------------------------------------------------
Hamiltonian:                         0.406     0.006   0.0% |
 Atomic:                             0.165     0.165   0.0% |
  XC Correction:                     0.000     0.000   0.0% |
 Calculate atomic Hamiltonians:      0.013     0.013   0.0% |
 Communicate:                        0.000     0.000   0.0% |
 Initialize Hamiltonian:             0.002     0.002   0.0% |
 Poisson:                            0.004     0.004   0.0% |
 XC 3D grid:                         0.216     0.216   0.0% |
LCAO initialization:                13.235     0.250   0.0% |
 LCAO eigensolver:                   1.351     0.002   0.0% |
  Calculate projections:             0.007     0.007   0.0% |
  DenseAtomicCorrection:             0.012     0.012   0.0% |
  Distribute overlap matrix:         0.001     0.001   0.0% |
  Orbital Layouts:                   0.043     0.043   0.0% |
  Potential matrix:                  1.249     1.249   0.1% |
  Sum over cells:                    0.038     0.038   0.0% |
 LCAO to grid:                      11.093    11.093   0.5% |
 Set positions (LCAO WFS):           0.540     0.002   0.0% |
  Basic WFS set positions:           0.002     0.002   0.0% |
  Basis functions set positions:     0.000     0.000   0.0% |
  TCI: Calculate S, T, P:            0.536     0.536   0.0% |
PWDescriptor:                        0.107     0.107   0.0% |
SCF-cycle:                        2408.595    69.473   2.9% ||
 Davidson:                        2135.652  1117.565  46.0% |-----------------|
  Subspace diag:                   310.533     0.160   0.0% |
   calc_h_matrix:                  274.383   274.383  11.3% |----|
   diagonalize:                      0.944     0.944   0.0% |
   rotate_psi:                      35.047    35.047   1.4% ||
  calc. matrices:                  633.456   633.456  26.1% |---------|
  diagonalize:                       8.173     8.173   0.3% |
  rotate_psi:                       65.925    65.925   2.7% ||
 Density:                          188.192     0.001   0.0% |
  Atomic density matrices:           0.368     0.368   0.0% |
  Mix:                               2.775     2.775   0.1% |
  Multipole moments:                 0.010     0.010   0.0% |
  Pseudo density:                  185.038   180.869   7.4% |--|
   Symmetrize density:               4.168     4.168   0.2% |
 Hamiltonian:                       12.572     0.151   0.0% |
  Atomic:                            5.241     5.241   0.2% |
   XC Correction:                    0.000     0.000   0.0% |
  Calculate atomic Hamiltonians:     0.409     0.409   0.0% |
  Communicate:                       0.003     0.003   0.0% |
  Poisson:                           0.148     0.148   0.0% |
  XC 3D grid:                        6.620     6.620   0.3% |
 Orthonormalize:                     2.707     0.005   0.0% |
  calc_s_matrix:                     0.337     0.337   0.0% |
  inverse-cholesky:                  0.013     0.013   0.0% |
  projections:                       1.818     1.818   0.1% |
  rotate_psi_s:                      0.533     0.533   0.0% |
Set symmetry:                        0.088     0.088   0.0% |
Other:                               7.933     7.933   0.3% |
-----------------------------------------------------------
Total:                                      2430.363 100.0%

Memory usage: 862.55 MiB
Date: Wed Jul  4 11:01:00 2018
